read_data	/Users/niko/Desktop/VSCode/simulation-UHMW-PE-adhesion/lammps/data/sim_md_1kA.txt
  orthogonal box = (-11.4895 -23.5271 -14.96) to (11.4895 23.5859 14.96)
  1 by 1 by 1 MPI processor grid
WARNING: Atom style in data file differs from currently defined atom style (../read_data.cpp:493)
  reading atoms ...
  1200 atoms
  scanning bonds ...
  1 = max bonds/atom
  scanning angles ...
  1 = max angles/atom
  scanning dihedrals ...
  1 = max dihedrals/atom
  reading bonds ...
  1120 bonds
  reading angles ...
  1040 angles
  reading dihedrals ...
  960 dihedrals
  2 = max # of 1-2 neighbors
  2 = max # of 1-3 neighbors
  4 = max # of 1-4 neighbors
  6 = max # of special neighbors

# Dreiding potential information
neighbor	1000.4 bin
neigh_modify	every 10 one 10000
bond_style      harmonic
bond_coeff	1 350 1.53
angle_style     harmonic
angle_coeff	1 60 109.5
dihedral_style	multi/harmonic
dihedral_coeff	1 1.73 -4.49 0.776 6.99 0.0
pair_style	lj/cut 10.5
pair_coeff	1 1 0.112 4.01 10.5

compute csym all centro/atom fcc
compute peratom all pe/atom
compute temp all temp
compute kenetic all ke/atom



#####################################################
# Equilibration (Langevin dynamics at 5000 K)

velocity 	all create 5000.0 1231
fix		1 all nve/limit 0.05
fix		2 all langevin 5000.0 5000.0 10.0 904297
thermo_style	custom step temp
thermo          	10000
#dump 1 all cfg 1 dump.sim_1kA_*.cfg mass type xs ys zs c_csym c_peratom fx fy fz
timestep	1
run		100
WARNING: Asking for neigh list (../fix_atomify.cpp:63)
Neighbor list info ...
  update every 10 steps, delay 10 steps, check yes
  max neighbors/atom: 10000, page size: 100000
  master list distance cutoff = 1010.9
  ghost atom cutoff = 1010.9
  binsize = 505.45, bins = 1 1 1
  3 neighbor lists, perpetual/occasional/extra = 1 2 0
  (1) pair lj/cut, perpetual
      attributes: half, newton on
      pair build: half/bin/newton
      stencil: half/bin/3d/newton
      bin: standard
  (2) fix atomify, occasional, copy from (1)
      attributes: half, newton on
      pair build: copy
      stencil: none
      bin: none
  (3) compute centro/atom, occasional
      attributes: full, newton on
      pair build: full/bin
      stencil: full/bin/3d
      bin: standard
WARNING: Proc sub-domain size < neighbor skin, could lead to lost atoms (../domain.cpp:937)
Per MPI rank memory allocation (min/avg/max) = 11.53 | 11.53 | 11.53 Mbytes
Step Temp 
       0         5000 
     100     4675.639 
Loop time of 1.84969 on 1 procs for 100 steps with 1200 atoms

Performance: 4.671 ns/day, 5.138 hours/ns, 54.063 timesteps/s
91.5% CPU use with 1 MPI tasks x 1 OpenMP threads

MPI task timing breakdown:
Section |  min time  |  avg time  |  max time  |%varavg| %total
---------------------------------------------------------------
Pair    | 0.23481    | 0.23481    | 0.23481    |   0.0 | 12.69
Bond    | 0.01338    | 0.01338    | 0.01338    |   0.0 |  0.72
Neigh   | 0          | 0          | 0          |   0.0 |  0.00
Comm    | 0.00011301 | 0.00011301 | 0.00011301 |   0.0 |  0.01
Output  | 2.0027e-05 | 2.0027e-05 | 2.0027e-05 |   0.0 |  0.00
Modify  | 1.601      | 1.601      | 1.601      |   0.0 | 86.56
Other   |            | 0.0003343  |            |       |  0.02

Nlocal:    1200 ave 1200 max 1200 min
Histogram: 1 0 0 0 0 0 0 0 0 0
Nghost:    0 ave 0 max 0 min
Histogram: 1 0 0 0 0 0 0 0 0 0
Neighs:    716280 ave 716280 max 716280 min
Histogram: 1 0 0 0 0 0 0 0 0 0
FullNghs:  1.43256e+06 ave 1.43256e+06 max 1.43256e+06 min
Histogram: 1 0 0 0 0 0 0 0 0 0

Total # of neighbors = 1432560
Ave neighs/atom = 1193.8
Ave special neighs/atom = 5.2
Neighbor list builds = 0
Dangerous builds = 0
unfix 1
unfix 2

write_restart 	restart.sim_1kA_restart
WARNING: Asking for neigh list (../fix_atomify.cpp:63)
WARNING: Proc sub-domain size < neighbor skin, could lead to lost atoms (../domain.cpp:937)


#####################################################
# Define Settings
compute eng all pe/atom
compute eatoms all reduce sum c_eng

#####################################################
# Minimization

dump 		1 all cfg 6 dump.sim_1kA_final*.cfg mass type xs ys zs c_csym c_peratom fx fy fz

reset_timestep 0
fix 1 all nvt temp 500.0 500.0 100.0
thermo 20
thermo_style custom step pe lx ly lz press pxx pyy pzz c_eatoms
min_style cg
minimize 1e-25 1e-25 500000 1000000
WARNING: Using 'neigh_modify every 1 delay 0 check yes' setting during minimization (../min.cpp:168)
WARNING: Asking for neigh list (../fix_atomify.cpp:63)
WARNING: Proc sub-domain size < neighbor skin, could lead to lost atoms (../domain.cpp:937)
Per MPI rank memory allocation (min/avg/max) = 24.79 | 24.79 | 24.79 Mbytes
Step PotEng Lx Ly Lz Press Pxx Pyy Pzz c_eatoms 
       0    11735.686       22.979    47.112999        29.92    23721.067   -37586.713    19894.061    88855.852    11735.686 
ERROR: Per-atom energy was not tallied on needed timestep (../compute_pe_atom.cpp:89)
Last command: minimize 1e-25 1e-25 500000 1000000
ERROR: Per-atom energy was not tallied on needed timestep (../compute_pe_atom.cpp:89)
Last command: minimize 1e-25 1e-25 500000 1000000
ERROR: Per-atom energy was not tallied on needed timestep (../compute_pe_atom.cpp:89)
Last command: minimize 1e-25 1e-25 500000 1000000
ERROR: Per-atom energy was not tallied on needed timestep (../compute_pe_atom.cpp:89)
Last command: minimize 1e-25 1e-25 500000 1000000
ERROR: Per-atom energy was not tallied on needed timestep (../compute_pe_atom.cpp:89)
Last command: minimize 1e-25 1e-25 500000 1000000
ERROR: Per-atom energy was not tallied on needed timestep (../compute_pe_atom.cpp:89)
Last command: minimize 1e-25 1e-25 500000 1000000
ERROR: Per-atom energy was not tallied on needed timestep (../compute_pe_atom.cpp:89)
Last command: minimize 1e-25 1e-25 500000 1000000
ERROR: Per-atom energy was not tallied on needed timestep (../compute_pe_atom.cpp:89)
Last command: minimize 1e-25 1e-25 500000 1000000
ERROR: Per-atom energy was not tallied on needed timestep (../compute_pe_atom.cpp:89)
Last command: minimize 1e-25 1e-25 500000 1000000
ERROR: Per-atom energy was not tallied on needed timestep (../compute_pe_atom.cpp:89)
Last command: minimize 1e-25 1e-25 500000 1000000
ERROR: Per-atom energy was not tallied on needed timestep (../compute_pe_atom.cpp:89)
Last command: minimize 1e-25 1e-25 500000 1000000
ERROR: Per-atom energy was not tallied on needed timestep (../compute_pe_atom.cpp:89)
Last command: minimize 1e-25 1e-25 500000 1000000
ERROR: Per-atom energy was not tallied on needed timestep (../compute_pe_atom.cpp:89)
Last command: minimize 1e-25 1e-25 500000 1000000
ERROR: Per-atom energy was not tallied on needed timestep (../compute_pe_atom.cpp:89)
Last command: minimize 1e-25 1e-25 500000 1000000
ERROR: Per-atom energy was not tallied on needed timestep (../compute_pe_atom.cpp:89)
Last command: minimize 1e-25 1e-25 500000 1000000
ERROR: Per-atom energy was not tallied on needed timestep (../compute_pe_atom.cpp:89)
Last command: minimize 1e-25 1e-25 500000 1000000
ERROR: Per-atom energy was not tallied on needed timestep (../compute_pe_atom.cpp:89)
Last command: minimize 1e-25 1e-25 500000 1000000
ERROR: Per-atom energy was not tallied on needed timestep (../compute_pe_atom.cpp:89)
Last command: minimize 1e-25 1e-25 500000 1000000
ERROR: Per-atom energy was not tallied on needed timestep (../compute_pe_atom.cpp:89)
Last command: minimize 1e-25 1e-25 500000 1000000
ERROR: Per-atom energy was not tallied on needed timestep (../compute_pe_atom.cpp:89)
Last command: minimize 1e-25 1e-25 500000 1000000
ERROR: Per-atom energy was not tallied on needed timestep (../compute_pe_atom.cpp:89)
Last command: minimize 1e-25 1e-25 500000 1000000
ERROR: Per-atom energy was not tallied on needed timestep (../compute_pe_atom.cpp:89)
Last command: minimize 1e-25 1e-25 500000 1000000
ERROR: Per-atom energy was not tallied on needed timestep (../compute_pe_atom.cpp:89)
Last command: minimize 1e-25 1e-25 500000 1000000
ERROR: Per-atom energy was not tallied on needed timestep (../compute_pe_atom.cpp:89)
Last command: minimize 1e-25 1e-25 500000 1000000
ERROR: Per-atom energy was not tallied on needed timestep (../compute_pe_atom.cpp:89)
Last command: minimize 1e-25 1e-25 500000 1000000
ERROR: Per-atom energy was not tallied on needed timestep (../compute_pe_atom.cpp:89)
Last command: minimize 1e-25 1e-25 500000 1000000
ERROR: Per-atom energy was not tallied on needed timestep (../compute_pe_atom.cpp:89)
Last command: minimize 1e-25 1e-25 500000 1000000
ERROR: Per-atom energy was not tallied on needed timestep (../compute_pe_atom.cpp:89)
Last command: minimize 1e-25 1e-25 500000 1000000
ERROR: Per-atom energy was not tallied on needed timestep (../compute_pe_atom.cpp:89)
Last command: minimize 1e-25 1e-25 500000 1000000
ERROR: Per-atom energy was not tallied on needed timestep (../compute_pe_atom.cpp:89)
Last command: minimize 1e-25 1e-25 500000 1000000
ERROR: Per-atom energy was not tallied on needed timestep (../compute_pe_atom.cpp:89)
Last command: minimize 1e-25 1e-25 500000 1000000
ERROR: Per-atom energy was not tallied on needed timestep (../compute_pe_atom.cpp:89)
Last command: minimize 1e-25 1e-25 500000 1000000
ERROR: Per-atom energy was not tallied on needed timestep (../compute_pe_atom.cpp:89)
Last command: minimize 1e-25 1e-25 500000 1000000
ERROR: Per-atom energy was not tallied on needed timestep (../compute_pe_atom.cpp:89)
Last command: minimize 1e-25 1e-25 500000 1000000
ERROR: Per-atom energy was not tallied on needed timestep (../compute_pe_atom.cpp:89)
Last command: minimize 1e-25 1e-25 500000 1000000
ERROR: Per-atom energy was not tallied on needed timestep (../compute_pe_atom.cpp:89)
Last command: minimize 1e-25 1e-25 500000 1000000
ERROR: Per-atom energy was not tallied on needed timestep (../compute_pe_atom.cpp:89)
Last command: minimize 1e-25 1e-25 500000 1000000
ERROR: Per-atom energy was not tallied on needed timestep (../compute_pe_atom.cpp:89)
Last command: minimize 1e-25 1e-25 500000 1000000
ERROR: Per-atom energy was not tallied on needed timestep (../compute_pe_atom.cpp:89)
Last command: minimize 1e-25 1e-25 500000 1000000
ERROR: Per-atom energy was not tallied on needed timestep (../compute_pe_atom.cpp:89)
Last command: minimize 1e-25 1e-25 500000 1000000
ERROR: Per-atom energy was not tallied on needed timestep (../compute_pe_atom.cpp:89)
Last command: minimize 1e-25 1e-25 500000 1000000
ERROR: Per-atom energy was not tallied on needed timestep (../compute_pe_atom.cpp:89)
Last command: minimize 1e-25 1e-25 500000 1000000
ERROR: Per-atom energy was not tallied on needed timestep (../compute_pe_atom.cpp:89)
Last command: minimize 1e-25 1e-25 500000 1000000
ERROR: Per-atom energy was not tallied on needed timestep (../compute_pe_atom.cpp:89)
Last command: minimize 1e-25 1e-25 500000 1000000
ERROR: Per-atom energy was not tallied on needed timestep (../compute_pe_atom.cpp:89)
Last command: minimize 1e-25 1e-25 500000 1000000
ERROR: Per-atom energy was not tallied on needed timestep (../compute_pe_atom.cpp:89)
Last command: minimize 1e-25 1e-25 500000 1000000
ERROR: Per-atom energy was not tallied on needed timestep (../compute_pe_atom.cpp:89)
Last command: minimize 1e-25 1e-25 500000 1000000
ERROR: Per-atom energy was not tallied on needed timestep (../compute_pe_atom.cpp:89)
Last command: minimize 1e-25 1e-25 500000 1000000
ERROR: Per-atom energy was not tallied on needed timestep (../compute_pe_atom.cpp:89)
Last command: minimize 1e-25 1e-25 500000 1000000
ERROR: Per-atom energy was not tallied on needed timestep (../compute_pe_atom.cpp:89)
Last command: minimize 1e-25 1e-25 500000 1000000
ERROR: Per-atom energy was not tallied on needed timestep (../compute_pe_atom.cpp:89)
Last command: minimize 1e-25 1e-25 500000 1000000
ERROR: Per-atom energy was not tallied on needed timestep (../compute_pe_atom.cpp:89)
Last command: minimize 1e-25 1e-25 500000 1000000
ERROR: Per-atom energy was not tallied on needed timestep (../compute_pe_atom.cpp:89)
Last command: minimize 1e-25 1e-25 500000 1000000
ERROR: Per-atom energy was not tallied on needed timestep (../compute_pe_atom.cpp:89)
Last command: minimize 1e-25 1e-25 500000 1000000
ERROR: Per-atom energy was not tallied on needed timestep (../compute_pe_atom.cpp:89)
Last command: minimize 1e-25 1e-25 500000 1000000
ERROR: Per-atom energy was not tallied on needed timestep (../compute_pe_atom.cpp:89)
Last command: minimize 1e-25 1e-25 500000 1000000
ERROR: Per-atom energy was not tallied on needed timestep (../compute_pe_atom.cpp:89)
Last command: minimize 1e-25 1e-25 500000 1000000
ERROR: Per-atom energy was not tallied on needed timestep (../compute_pe_atom.cpp:89)
Last command: minimize 1e-25 1e-25 500000 1000000
ERROR: Per-atom energy was not tallied on needed timestep (../compute_pe_atom.cpp:89)
Last command: minimize 1e-25 1e-25 500000 1000000
ERROR: Per-atom energy was not tallied on needed timestep (../compute_pe_atom.cpp:89)
Last command: minimize 1e-25 1e-25 500000 1000000
ERROR: Per-atom energy was not tallied on needed timestep (../compute_pe_atom.cpp:89)
Last command: minimize 1e-25 1e-25 500000 1000000
ERROR: Per-atom energy was not tallied on needed timestep (../compute_pe_atom.cpp:89)
Last command: minimize 1e-25 1e-25 500000 1000000
ERROR: Per-atom energy was not tallied on needed timestep (../compute_pe_atom.cpp:89)
Last command: minimize 1e-25 1e-25 500000 1000000
ERROR: Per-atom energy was not tallied on needed timestep (../compute_pe_atom.cpp:89)
Last command: minimize 1e-25 1e-25 500000 1000000
ERROR: Per-atom energy was not tallied on needed timestep (../compute_pe_atom.cpp:89)
Last command: minimize 1e-25 1e-25 500000 1000000
ERROR: Per-atom energy was not tallied on needed timestep (../compute_pe_atom.cpp:89)
Last command: minimize 1e-25 1e-25 500000 1000000
ERROR: Per-atom energy was not tallied on needed timestep (../compute_pe_atom.cpp:89)
Last command: minimize 1e-25 1e-25 500000 1000000
ERROR: Per-atom energy was not tallied on needed timestep (../compute_pe_atom.cpp:89)
Last command: minimize 1e-25 1e-25 500000 1000000
ERROR: Per-atom energy was not tallied on needed timestep (../compute_pe_atom.cpp:89)
Last command: minimize 1e-25 1e-25 500000 1000000
ERROR: Per-atom energy was not tallied on needed timestep (../compute_pe_atom.cpp:89)
Last command: minimize 1e-25 1e-25 500000 1000000
ERROR: Per-atom energy was not tallied on needed timestep (../compute_pe_atom.cpp:89)
Last command: minimize 1e-25 1e-25 500000 1000000
ERROR: Per-atom energy was not tallied on needed timestep (../compute_pe_atom.cpp:89)
Last command: minimize 1e-25 1e-25 500000 1000000
ERROR: Per-atom energy was not tallied on needed timestep (../compute_pe_atom.cpp:89)
Last command: minimize 1e-25 1e-25 500000 1000000
      20   -782.82064       22.979    47.112999        29.92    32537.691      25965.5    27467.701    44179.873   -782.82064 
ERROR: Per-atom energy was not tallied on needed timestep (../compute_pe_atom.cpp:89)
Last command: minimize 1e-25 1e-25 500000 1000000
ERROR: Per-atom energy was not tallied on needed timestep (../compute_pe_atom.cpp:89)
Last command: minimize 1e-25 1e-25 500000 1000000
ERROR: Per-atom energy was not tallied on needed timestep (../compute_pe_atom.cpp:89)
Last command: minimize 1e-25 1e-25 500000 1000000
ERROR: Per-atom energy was not tallied on needed timestep (../compute_pe_atom.cpp:89)
Last command: minimize 1e-25 1e-25 500000 1000000
ERROR: Per-atom energy was not tallied on needed timestep (../compute_pe_atom.cpp:89)
Last command: minimize 1e-25 1e-25 500000 1000000
ERROR: Per-atom energy was not tallied on needed timestep (../compute_pe_atom.cpp:89)
Last command: minimize 1e-25 1e-25 500000 1000000
ERROR: Per-atom energy was not tallied on needed timestep (../compute_pe_atom.cpp:89)
Last command: minimize 1e-25 1e-25 500000 1000000
ERROR: Per-atom energy was not tallied on needed timestep (../compute_pe_atom.cpp:89)
Last command: minimize 1e-25 1e-25 500000 1000000
ERROR: Per-atom energy was not tallied on needed timestep (../compute_pe_atom.cpp:89)
Last command: minimize 1e-25 1e-25 500000 1000000
ERROR: Per-atom energy was not tallied on needed timestep (../compute_pe_atom.cpp:89)
Last command: minimize 1e-25 1e-25 500000 1000000
ERROR: Per-atom energy was not tallied on needed timestep (../compute_pe_atom.cpp:89)
Last command: minimize 1e-25 1e-25 500000 1000000
ERROR: Per-atom energy was not tallied on needed timestep (../compute_pe_atom.cpp:89)
Last command: minimize 1e-25 1e-25 500000 1000000
ERROR: Per-atom energy was not tallied on needed timestep (../compute_pe_atom.cpp:89)
Last command: minimize 1e-25 1e-25 500000 1000000
ERROR: Per-atom energy was not tallied on needed timestep (../compute_pe_atom.cpp:89)
Last command: minimize 1e-25 1e-25 500000 1000000
ERROR: Per-atom energy was not tallied on needed timestep (../compute_pe_atom.cpp:89)
Last command: minimize 1e-25 1e-25 500000 1000000
ERROR: Per-atom energy was not tallied on needed timestep (../compute_pe_atom.cpp:89)
Last command: minimize 1e-25 1e-25 500000 1000000
ERROR: Per-atom energy was not tallied on needed timestep (../compute_pe_atom.cpp:89)
Last command: minimize 1e-25 1e-25 500000 1000000
ERROR: Per-atom energy was not tallied on needed timestep (../compute_pe_atom.cpp:89)
Last command: minimize 1e-25 1e-25 500000 1000000
ERROR: Per-atom energy was not tallied on needed timestep (../compute_pe_atom.cpp:89)
Last command: minimize 1e-25 1e-25 500000 1000000
ERROR: Per-atom energy was not tallied on needed timestep (../compute_pe_atom.cpp:89)
Last command: minimize 1e-25 1e-25 500000 1000000
ERROR: Per-atom energy was not tallied on needed timestep (../compute_pe_atom.cpp:89)
Last command: minimize 1e-25 1e-25 500000 1000000
ERROR: Per-atom energy was not tallied on needed timestep (../compute_pe_atom.cpp:89)
Last command: minimize 1e-25 1e-25 500000 1000000
ERROR: Per-atom energy was not tallied on needed timestep (../compute_pe_atom.cpp:89)
Last command: minimize 1e-25 1e-25 500000 1000000
ERROR: Per-atom energy was not tallied on needed timestep (../compute_pe_atom.cpp:89)
Last command: minimize 1e-25 1e-25 500000 1000000
ERROR: Per-atom energy was not tallied on needed timestep (../compute_pe_atom.cpp:89)
Last command: minimize 1e-25 1e-25 500000 1000000
ERROR: Per-atom energy was not tallied on needed timestep (../compute_pe_atom.cpp:89)
Last command: minimize 1e-25 1e-25 500000 1000000
ERROR: Per-atom energy was not tallied on needed timestep (../compute_pe_atom.cpp:89)
Last command: minimize 1e-25 1e-25 500000 1000000
ERROR: Per-atom energy was not tallied on needed timestep (../compute_pe_atom.cpp:89)
Last command: minimize 1e-25 1e-25 500000 1000000
ERROR: Per-atom energy was not tallied on needed timestep (../compute_pe_atom.cpp:89)
Last command: minimize 1e-25 1e-25 500000 1000000
ERROR: Per-atom energy was not tallied on needed timestep (../compute_pe_atom.cpp:89)
Last command: minimize 1e-25 1e-25 500000 1000000
ERROR: Per-atom energy was not tallied on needed timestep (../compute_pe_atom.cpp:89)
Last command: minimize 1e-25 1e-25 500000 1000000
ERROR: Per-atom energy was not tallied on needed timestep (../compute_pe_atom.cpp:89)
Last command: minimize 1e-25 1e-25 500000 1000000
ERROR: Per-atom energy was not tallied on needed timestep (../compute_pe_atom.cpp:89)
Last command: minimize 1e-25 1e-25 500000 1000000
ERROR: Per-atom energy was not tallied on needed timestep (../compute_pe_atom.cpp:89)
Last command: minimize 1e-25 1e-25 500000 1000000
ERROR: Per-atom energy was not tallied on needed timestep (../compute_pe_atom.cpp:89)
Last command: minimize 1e-25 1e-25 500000 1000000
ERROR: Per-atom energy was not tallied on needed timestep (../compute_pe_atom.cpp:89)
Last command: minimize 1e-25 1e-25 500000 1000000
ERROR: Per-atom energy was not tallied on needed timestep (../compute_pe_atom.cpp:89)
Last command: minimize 1e-25 1e-25 500000 1000000
ERROR: Per-atom energy was not tallied on needed timestep (../compute_pe_atom.cpp:89)
Last command: minimize 1e-25 1e-25 500000 1000000
ERROR: Per-atom energy was not tallied on needed timestep (../compute_pe_atom.cpp:89)
Last command: minimize 1e-25 1e-25 500000 1000000
ERROR: Per-atom energy was not tallied on needed timestep (../compute_pe_atom.cpp:89)
Last command: minimize 1e-25 1e-25 500000 1000000
ERROR: Per-atom energy was not tallied on needed timestep (../compute_pe_atom.cpp:89)
Last command: minimize 1e-25 1e-25 500000 1000000
ERROR: Per-atom energy was not tallied on needed timestep (../compute_pe_atom.cpp:89)
Last command: minimize 1e-25 1e-25 500000 1000000
ERROR: Per-atom energy was not tallied on needed timestep (../compute_pe_atom.cpp:89)
Last command: minimize 1e-25 1e-25 500000 1000000
ERROR: Per-atom energy was not tallied on needed timestep (../compute_pe_atom.cpp:89)
Last command: minimize 1e-25 1e-25 500000 1000000
ERROR: Per-atom energy was not tallied on needed timestep (../compute_pe_atom.cpp:89)
Last command: minimize 1e-25 1e-25 500000 1000000
ERROR: Per-atom energy was not tallied on needed timestep (../compute_pe_atom.cpp:89)
Last command: minimize 1e-25 1e-25 500000 1000000
ERROR: Per-atom energy was not tallied on needed timestep (../compute_pe_atom.cpp:89)
Last command: minimize 1e-25 1e-25 500000 1000000
ERROR: Per-atom energy was not tallied on needed timestep (../compute_pe_atom.cpp:89)
Last command: minimize 1e-25 1e-25 500000 1000000
ERROR: Per-atom energy was not tallied on needed timestep (../compute_pe_atom.cpp:89)
Last command: minimize 1e-25 1e-25 500000 1000000
ERROR: Per-atom energy was not tallied on needed timestep (../compute_pe_atom.cpp:89)
Last command: minimize 1e-25 1e-25 500000 1000000
ERROR: Per-atom energy was not tallied on needed timestep (../compute_pe_atom.cpp:89)
Last command: minimize 1e-25 1e-25 500000 1000000
ERROR: Per-atom energy was not tallied on needed timestep (../compute_pe_atom.cpp:89)
Last command: minimize 1e-25 1e-25 500000 1000000
ERROR: Per-atom energy was not tallied on needed timestep (../compute_pe_atom.cpp:89)
Last command: minimize 1e-25 1e-25 500000 1000000
ERROR: Per-atom energy was not tallied on needed timestep (../compute_pe_atom.cpp:89)
Last command: minimize 1e-25 1e-25 500000 1000000
ERROR: Per-atom energy was not tallied on needed timestep (../compute_pe_atom.cpp:89)
Last command: minimize 1e-25 1e-25 500000 1000000
ERROR: Per-atom energy was not tallied on needed timestep (../compute_pe_atom.cpp:89)
Last command: minimize 1e-25 1e-25 500000 1000000
ERROR: Per-atom energy was not tallied on needed timestep (../compute_pe_atom.cpp:89)
Last command: minimize 1e-25 1e-25 500000 1000000
ERROR: Per-atom energy was not tallied on needed timestep (../compute_pe_atom.cpp:89)
Last command: minimize 1e-25 1e-25 500000 1000000
ERROR: Per-atom energy was not tallied on needed timestep (../compute_pe_atom.cpp:89)
Last command: minimize 1e-25 1e-25 500000 1000000
ERROR: Per-atom energy was not tallied on needed timestep (../compute_pe_atom.cpp:89)
Last command: minimize 1e-25 1e-25 500000 1000000
ERROR: Per-atom energy was not tallied on needed timestep (../compute_pe_atom.cpp:89)
Last command: minimize 1e-25 1e-25 500000 1000000
ERROR: Per-atom energy was not tallied on needed timestep (../compute_pe_atom.cpp:89)
Last command: minimize 1e-25 1e-25 500000 1000000
ERROR: Per-atom energy was not tallied on needed timestep (../compute_pe_atom.cpp:89)
Last command: minimize 1e-25 1e-25 500000 1000000
ERROR: Per-atom energy was not tallied on needed timestep (../compute_pe_atom.cpp:89)
Last command: minimize 1e-25 1e-25 500000 1000000
ERROR: Per-atom energy was not tallied on needed timestep (../compute_pe_atom.cpp:89)
Last command: minimize 1e-25 1e-25 500000 1000000
ERROR: Per-atom energy was not tallied on needed timestep (../compute_pe_atom.cpp:89)
Last command: minimize 1e-25 1e-25 500000 1000000
ERROR: Per-atom energy was not tallied on needed timestep (../compute_pe_atom.cpp:89)
Last command: minimize 1e-25 1e-25 500000 1000000
ERROR: Per-atom energy was not tallied on needed timestep (../compute_pe_atom.cpp:89)
Last command: minimize 1e-25 1e-25 500000 1000000
ERROR: Per-atom energy was not tallied on needed timestep (../compute_pe_atom.cpp:89)
Last command: minimize 1e-25 1e-25 500000 1000000
ERROR: Per-atom energy was not tallied on needed timestep (../compute_pe_atom.cpp:89)
Last command: minimize 1e-25 1e-25 500000 1000000
ERROR: Per-atom energy was not tallied on needed timestep (../compute_pe_atom.cpp:89)
Last command: minimize 1e-25 1e-25 500000 1000000
ERROR: Per-atom energy was not tallied on needed timestep (../compute_pe_atom.cpp:89)
Last command: minimize 1e-25 1e-25 500000 1000000
ERROR: Per-atom energy was not tallied on needed timestep (../compute_pe_atom.cpp:89)
Last command: minimize 1e-25 1e-25 500000 1000000
ERROR: Per-atom energy was not tallied on needed timestep (../compute_pe_atom.cpp:89)
Last command: minimize 1e-25 1e-25 500000 1000000
ERROR: Per-atom energy was not tallied on needed timestep (../compute_pe_atom.cpp:89)
Last command: minimize 1e-25 1e-25 500000 1000000
ERROR: Per-atom energy was not tallied on needed timestep (../compute_pe_atom.cpp:89)
Last command: minimize 1e-25 1e-25 500000 1000000
ERROR: Per-atom energy was not tallied on needed timestep (../compute_pe_atom.cpp:89)
Last command: minimize 1e-25 1e-25 500000 1000000
ERROR: Per-atom energy was not tallied on needed timestep (../compute_pe_atom.cpp:89)
Last command: minimize 1e-25 1e-25 500000 1000000
ERROR: Per-atom energy was not tallied on needed timestep (../compute_pe_atom.cpp:89)
Last command: minimize 1e-25 1e-25 500000 1000000
ERROR: Per-atom energy was not tallied on needed timestep (../compute_pe_atom.cpp:89)
Last command: minimize 1e-25 1e-25 500000 1000000
ERROR: Per-atom energy was not tallied on needed timestep (../compute_pe_atom.cpp:89)
Last command: minimize 1e-25 1e-25 500000 1000000
ERROR: Per-atom energy was not tallied on needed timestep (../compute_pe_atom.cpp:89)
Last command: minimize 1e-25 1e-25 500000 1000000
ERROR: Per-atom energy was not tallied on needed timestep (../compute_pe_atom.cpp:89)
Last command: minimize 1e-25 1e-25 500000 1000000
ERROR: Per-atom energy was not tallied on needed timestep (../compute_pe_atom.cpp:89)
Last command: minimize 1e-25 1e-25 500000 1000000
ERROR: Per-atom energy was not tallied on needed timestep (../compute_pe_atom.cpp:89)
Last command: minimize 1e-25 1e-25 500000 1000000
ERROR: Per-atom energy was not tallied on needed timestep (../compute_pe_atom.cpp:89)
Last command: minimize 1e-25 1e-25 500000 1000000
ERROR: Per-atom energy was not tallied on needed timestep (../compute_pe_atom.cpp:89)
Last command: minimize 1e-25 1e-25 500000 1000000
ERROR: Per-atom energy was not tallied on needed timestep (../compute_pe_atom.cpp:89)
Last command: minimize 1e-25 1e-25 500000 1000000
ERROR: Per-atom energy was not tallied on needed timestep (../compute_pe_atom.cpp:89)
Last command: minimize 1e-25 1e-25 500000 1000000
ERROR: Per-atom energy was not tallied on needed timestep (../compute_pe_atom.cpp:89)
Last command: minimize 1e-25 1e-25 500000 1000000
ERROR: Per-atom energy was not tallied on needed timestep (../compute_pe_atom.cpp:89)
Last command: minimize 1e-25 1e-25 500000 1000000
ERROR: Per-atom energy was not tallied on needed timestep (../compute_pe_atom.cpp:89)
Last command: minimize 1e-25 1e-25 500000 1000000
ERROR: Per-atom energy was not tallied on needed timestep (../compute_pe_atom.cpp:89)
Last command: minimize 1e-25 1e-25 500000 1000000
ERROR: Per-atom energy was not tallied on needed timestep (../compute_pe_atom.cpp:89)
Last command: minimize 1e-25 1e-25 500000 1000000
      40   -1231.3788       22.979    47.112999        29.92    28924.096    23397.062    26707.165    36668.063   -1231.3788 
ERROR: Per-atom energy was not tallied on needed timestep (../compute_pe_atom.cpp:89)
Last command: minimize 1e-25 1e-25 500000 1000000
ERROR: Per-atom energy was not tallied on needed timestep (../compute_pe_atom.cpp:89)
Last command: minimize 1e-25 1e-25 500000 1000000
ERROR: Per-atom energy was not tallied on needed timestep (../compute_pe_atom.cpp:89)
Last command: minimize 1e-25 1e-25 500000 1000000
ERROR: Per-atom energy was not tallied on needed timestep (../compute_pe_atom.cpp:89)
Last command: minimize 1e-25 1e-25 500000 1000000
ERROR: Per-atom energy was not tallied on needed timestep (../compute_pe_atom.cpp:89)
Last command: minimize 1e-25 1e-25 500000 1000000
ERROR: Per-atom energy was not tallied on needed timestep (../compute_pe_atom.cpp:89)
Last command: minimize 1e-25 1e-25 500000 1000000
ERROR: Per-atom energy was not tallied on needed timestep (../compute_pe_atom.cpp:89)
Last command: minimize 1e-25 1e-25 500000 1000000
ERROR: Per-atom energy was not tallied on needed timestep (../compute_pe_atom.cpp:89)
Last command: minimize 1e-25 1e-25 500000 1000000
ERROR: Per-atom energy was not tallied on needed timestep (../compute_pe_atom.cpp:89)
Last command: minimize 1e-25 1e-25 500000 1000000
ERROR: Per-atom energy was not tallied on needed timestep (../compute_pe_atom.cpp:89)
Last command: minimize 1e-25 1e-25 500000 1000000
ERROR: Per-atom energy was not tallied on needed timestep (../compute_pe_atom.cpp:89)
Last command: minimize 1e-25 1e-25 500000 1000000
ERROR: Per-atom energy was not tallied on needed timestep (../compute_pe_atom.cpp:89)
Last command: minimize 1e-25 1e-25 500000 1000000
ERROR: Per-atom energy was not tallied on needed timestep (../compute_pe_atom.cpp:89)
Last command: minimize 1e-25 1e-25 500000 1000000
ERROR: Per-atom energy was not tallied on needed timestep (../compute_pe_atom.cpp:89)
Last command: minimize 1e-25 1e-25 500000 1000000
ERROR: Per-atom energy was not tallied on needed timestep (../compute_pe_atom.cpp:89)
Last command: minimize 1e-25 1e-25 500000 1000000
ERROR: Per-atom energy was not tallied on needed timestep (../compute_pe_atom.cpp:89)
Last command: minimize 1e-25 1e-25 500000 1000000
ERROR: Per-atom energy was not tallied on needed timestep (../compute_pe_atom.cpp:89)
Last command: minimize 1e-25 1e-25 500000 1000000
ERROR: Per-atom energy was not tallied on needed timestep (../compute_pe_atom.cpp:89)
Last command: minimize 1e-25 1e-25 500000 1000000
ERROR: Per-atom energy was not tallied on needed timestep (../compute_pe_atom.cpp:89)
Last command: minimize 1e-25 1e-25 500000 1000000
ERROR: Per-atom energy was not tallied on needed timestep (../compute_pe_atom.cpp:89)
Last command: minimize 1e-25 1e-25 500000 1000000
ERROR: Per-atom energy was not tallied on needed timestep (../compute_pe_atom.cpp:89)
Last command: minimize 1e-25 1e-25 500000 1000000
ERROR: Per-atom energy was not tallied on needed timestep (../compute_pe_atom.cpp:89)
Last command: minimize 1e-25 1e-25 500000 1000000
ERROR: Per-atom energy was not tallied on needed timestep (../compute_pe_atom.cpp:89)
Last command: minimize 1e-25 1e-25 500000 1000000
ERROR: Per-atom energy was not tallied on needed timestep (../compute_pe_atom.cpp:89)
Last command: minimize 1e-25 1e-25 500000 1000000
ERROR: Per-atom energy was not tallied on needed timestep (../compute_pe_atom.cpp:89)
Last command: minimize 1e-25 1e-25 500000 1000000
ERROR: Per-atom energy was not tallied on needed timestep (../compute_pe_atom.cpp:89)
Last command: minimize 1e-25 1e-25 500000 1000000
ERROR: Per-atom energy was not tallied on needed timestep (../compute_pe_atom.cpp:89)
Last command: minimize 1e-25 1e-25 500000 1000000
ERROR: Per-atom energy was not tallied on needed timestep (../compute_pe_atom.cpp:89)
Last command: minimize 1e-25 1e-25 500000 1000000
ERROR: Per-atom energy was not tallied on needed timestep (../compute_pe_atom.cpp:89)
Last command: minimize 1e-25 1e-25 500000 1000000
ERROR: Per-atom energy was not tallied on needed timestep (../compute_pe_atom.cpp:89)
Last command: minimize 1e-25 1e-25 500000 1000000
ERROR: Per-atom energy was not tallied on needed timestep (../compute_pe_atom.cpp:89)
Last command: minimize 1e-25 1e-25 500000 1000000
ERROR: Per-atom energy was not tallied on needed timestep (../compute_pe_atom.cpp:89)
Last command: minimize 1e-25 1e-25 500000 1000000
ERROR: Per-atom energy was not tallied on needed timestep (../compute_pe_atom.cpp:89)
Last command: minimize 1e-25 1e-25 500000 1000000
ERROR: Per-atom energy was not tallied on needed timestep (../compute_pe_atom.cpp:89)
Last command: minimize 1e-25 1e-25 500000 1000000
ERROR: Per-atom energy was not tallied on needed timestep (../compute_pe_atom.cpp:89)
Last command: minimize 1e-25 1e-25 500000 1000000
ERROR: Per-atom energy was not tallied on needed timestep (../compute_pe_atom.cpp:89)
Last command: minimize 1e-25 1e-25 500000 1000000
ERROR: Per-atom energy was not tallied on needed timestep (../compute_pe_atom.cpp:89)
Last command: minimize 1e-25 1e-25 500000 1000000
ERROR: Per-atom energy was not tallied on needed timestep (../compute_pe_atom.cpp:89)
Last command: minimize 1e-25 1e-25 500000 1000000
ERROR: Per-atom energy was not tallied on needed timestep (../compute_pe_atom.cpp:89)
Last command: minimize 1e-25 1e-25 500000 1000000
ERROR: Per-atom energy was not tallied on needed timestep (../compute_pe_atom.cpp:89)
Last command: minimize 1e-25 1e-25 500000 1000000
ERROR: Per-atom energy was not tallied on needed timestep (../compute_pe_atom.cpp:89)
Last command: minimize 1e-25 1e-25 500000 1000000
ERROR: Per-atom energy was not tallied on needed timestep (../compute_pe_atom.cpp:89)
Last command: minimize 1e-25 1e-25 500000 1000000
ERROR: Per-atom energy was not tallied on needed timestep (../compute_pe_atom.cpp:89)
Last command: minimize 1e-25 1e-25 500000 1000000
ERROR: Per-atom energy was not tallied on needed timestep (../compute_pe_atom.cpp:89)
Last command: minimize 1e-25 1e-25 500000 1000000
ERROR: Per-atom energy was not tallied on needed timestep (../compute_pe_atom.cpp:89)
Last command: minimize 1e-25 1e-25 500000 1000000
ERROR: Per-atom energy was not tallied on needed timestep (../compute_pe_atom.cpp:89)
Last command: minimize 1e-25 1e-25 500000 1000000
ERROR: Per-atom energy was not tallied on needed timestep (../compute_pe_atom.cpp:89)
Last command: minimize 1e-25 1e-25 500000 1000000
ERROR: Per-atom energy was not tallied on needed timestep (../compute_pe_atom.cpp:89)
Last command: minimize 1e-25 1e-25 500000 1000000
ERROR: Per-atom energy was not tallied on needed timestep (../compute_pe_atom.cpp:89)
Last command: minimize 1e-25 1e-25 500000 1000000
ERROR: Per-atom energy was not tallied on needed timestep (../compute_pe_atom.cpp:89)
Last command: minimize 1e-25 1e-25 500000 1000000
ERROR: Per-atom energy was not tallied on needed timestep (../compute_pe_atom.cpp:89)
Last command: minimize 1e-25 1e-25 500000 1000000
ERROR: Per-atom energy was not tallied on needed timestep (../compute_pe_atom.cpp:89)
Last command: minimize 1e-25 1e-25 500000 1000000
ERROR: Per-atom energy was not tallied on needed timestep (../compute_pe_atom.cpp:89)
Last command: minimize 1e-25 1e-25 500000 1000000
ERROR: Per-atom energy was not tallied on needed timestep (../compute_pe_atom.cpp:89)
Last command: minimize 1e-25 1e-25 500000 1000000
ERROR: Per-atom energy was not tallied on needed timestep (../compute_pe_atom.cpp:89)
Last command: minimize 1e-25 1e-25 500000 1000000
ERROR: Per-atom energy was not tallied on needed timestep (../compute_pe_atom.cpp:89)
Last command: minimize 1e-25 1e-25 500000 1000000
ERROR: Per-atom energy was not tallied on needed timestep (../compute_pe_atom.cpp:89)
Last command: minimize 1e-25 1e-25 500000 1000000
ERROR: Per-atom energy was not tallied on needed timestep (../compute_pe_atom.cpp:89)
Last command: minimize 1e-25 1e-25 500000 1000000
ERROR: Per-atom energy was not tallied on needed timestep (../compute_pe_atom.cpp:89)
Last command: minimize 1e-25 1e-25 500000 1000000
ERROR: Per-atom energy was not tallied on needed timestep (../compute_pe_atom.cpp:89)
Last command: minimize 1e-25 1e-25 500000 1000000
ERROR: Per-atom energy was not tallied on needed timestep (../compute_pe_atom.cpp:89)
Last command: minimize 1e-25 1e-25 500000 1000000
ERROR: Per-atom energy was not tallied on needed timestep (../compute_pe_atom.cpp:89)
Last command: minimize 1e-25 1e-25 500000 1000000
ERROR: Per-atom energy was not tallied on needed timestep (../compute_pe_atom.cpp:89)
Last command: minimize 1e-25 1e-25 500000 1000000
ERROR: Per-atom energy was not tallied on needed timestep (../compute_pe_atom.cpp:89)
Last command: minimize 1e-25 1e-25 500000 1000000
ERROR: Per-atom energy was not tallied on needed timestep (../compute_pe_atom.cpp:89)
Last command: minimize 1e-25 1e-25 500000 1000000
ERROR: Per-atom energy was not tallied on needed timestep (../compute_pe_atom.cpp:89)
Last command: minimize 1e-25 1e-25 500000 1000000
ERROR: Per-atom energy was not tallied on needed timestep (../compute_pe_atom.cpp:89)
Last command: minimize 1e-25 1e-25 500000 1000000
ERROR: Per-atom energy was not tallied on needed timestep (../compute_pe_atom.cpp:89)
Last command: minimize 1e-25 1e-25 500000 1000000
ERROR: Per-atom energy was not tallied on needed timestep (../compute_pe_atom.cpp:89)
Last command: minimize 1e-25 1e-25 500000 1000000
ERROR: Per-atom energy was not tallied on needed timestep (../compute_pe_atom.cpp:89)
Last command: minimize 1e-25 1e-25 500000 1000000
ERROR: Per-atom energy was not tallied on needed timestep (../compute_pe_atom.cpp:89)
Last command: minimize 1e-25 1e-25 500000 1000000
ERROR: Per-atom energy was not tallied on needed timestep (../compute_pe_atom.cpp:89)
Last command: minimize 1e-25 1e-25 500000 1000000
ERROR: Per-atom energy was not tallied on needed timestep (../compute_pe_atom.cpp:89)
Last command: minimize 1e-25 1e-25 500000 1000000
ERROR: Per-atom energy was not tallied on needed timestep (../compute_pe_atom.cpp:89)
Last command: minimize 1e-25 1e-25 500000 1000000
ERROR: Per-atom energy was not tallied on needed timestep (../compute_pe_atom.cpp:89)
Last command: minimize 1e-25 1e-25 500000 1000000
ERROR: Per-atom energy was not tallied on needed timestep (../compute_pe_atom.cpp:89)
Last command: minimize 1e-25 1e-25 500000 1000000
ERROR: Per-atom energy was not tallied on needed timestep (../compute_pe_atom.cpp:89)
Last command: minimize 1e-25 1e-25 500000 1000000
ERROR: Per-atom energy was not tallied on needed timestep (../compute_pe_atom.cpp:89)
Last command: minimize 1e-25 1e-25 500000 1000000
ERROR: Per-atom energy was not tallied on needed timestep (../compute_pe_atom.cpp:89)
Last command: minimize 1e-25 1e-25 500000 1000000
ERROR: Per-atom energy was not tallied on needed timestep (../compute_pe_atom.cpp:89)
Last command: minimize 1e-25 1e-25 500000 1000000
ERROR: Per-atom energy was not tallied on needed timestep (../compute_pe_atom.cpp:89)
Last command: minimize 1e-25 1e-25 500000 1000000
ERROR: Per-atom energy was not tallied on needed timestep (../compute_pe_atom.cpp:89)
Last command: minimize 1e-25 1e-25 500000 1000000
ERROR: Per-atom energy was not tallied on needed timestep (../compute_pe_atom.cpp:89)
Last command: minimize 1e-25 1e-25 500000 1000000
ERROR: Per-atom energy was not tallied on needed timestep (../compute_pe_atom.cpp:89)
Last command: minimize 1e-25 1e-25 500000 1000000
ERROR: Per-atom energy was not tallied on needed timestep (../compute_pe_atom.cpp:89)
Last command: minimize 1e-25 1e-25 500000 1000000
ERROR: Per-atom energy was not tallied on needed timestep (../compute_pe_atom.cpp:89)
Last command: minimize 1e-25 1e-25 500000 1000000
ERROR: Per-atom energy was not tallied on needed timestep (../compute_pe_atom.cpp:89)
Last command: minimize 1e-25 1e-25 500000 1000000
ERROR: Per-atom energy was not tallied on needed timestep (../compute_pe_atom.cpp:89)
Last command: minimize 1e-25 1e-25 500000 1000000
ERROR: Per-atom energy was not tallied on needed timestep (../compute_pe_atom.cpp:89)
Last command: minimize 1e-25 1e-25 500000 1000000
ERROR: Per-atom energy was not tallied on needed timestep (../compute_pe_atom.cpp:89)
Last command: minimize 1e-25 1e-25 500000 1000000
ERROR: Per-atom energy was not tallied on needed timestep (../compute_pe_atom.cpp:89)
Last command: minimize 1e-25 1e-25 500000 1000000
ERROR: Per-atom energy was not tallied on needed timestep (../compute_pe_atom.cpp:89)
Last command: minimize 1e-25 1e-25 500000 1000000
ERROR: Per-atom energy was not tallied on needed timestep (../compute_pe_atom.cpp:89)
Last command: minimize 1e-25 1e-25 500000 1000000
ERROR: Per-atom energy was not tallied on needed timestep (../compute_pe_atom.cpp:89)
Last command: minimize 1e-25 1e-25 500000 1000000
ERROR: Per-atom energy was not tallied on needed timestep (../compute_pe_atom.cpp:89)
Last command: minimize 1e-25 1e-25 500000 1000000
ERROR: Per-atom energy was not tallied on needed timestep (../compute_pe_atom.cpp:89)
Last command: minimize 1e-25 1e-25 500000 1000000
ERROR: Per-atom energy was not tallied on needed timestep (../compute_pe_atom.cpp:89)
Last command: minimize 1e-25 1e-25 500000 1000000
ERROR: Per-atom energy was not tallied on needed timestep (../compute_pe_atom.cpp:89)
Last command: minimize 1e-25 1e-25 500000 1000000
ERROR: Per-atom energy was not tallied on needed timestep (../compute_pe_atom.cpp:89)
Last command: minimize 1e-25 1e-25 500000 1000000
ERROR: Per-atom energy was not tallied on needed timestep (../compute_pe_atom.cpp:89)
Last command: minimize 1e-25 1e-25 500000 1000000
ERROR: Per-atom energy was not tallied on needed timestep (../compute_pe_atom.cpp:89)
Last command: minimize 1e-25 1e-25 500000 1000000
ERROR: Per-atom energy was not tallied on needed timestep (../compute_pe_atom.cpp:89)
Last command: minimize 1e-25 1e-25 500000 1000000
ERROR: Per-atom energy was not tallied on needed timestep (../compute_pe_atom.cpp:89)
Last command: minimize 1e-25 1e-25 500000 1000000
ERROR: Per-atom energy was not tallied on needed timestep (../compute_pe_atom.cpp:89)
Last command: minimize 1e-25 1e-25 500000 1000000
ERROR: Per-atom energy was not tallied on needed timestep (../compute_pe_atom.cpp:89)
Last command: minimize 1e-25 1e-25 500000 1000000
ERROR: Per-atom energy was not tallied on needed timestep (../compute_pe_atom.cpp:89)
Last command: minimize 1e-25 1e-25 500000 1000000
ERROR: Per-atom energy was not tallied on needed timestep (../compute_pe_atom.cpp:89)
Last command: minimize 1e-25 1e-25 500000 1000000
ERROR: Per-atom energy was not tallied on needed timestep (../compute_pe_atom.cpp:89)
Last command: minimize 1e-25 1e-25 500000 1000000
ERROR: Per-atom energy was not tallied on needed timestep (../compute_pe_atom.cpp:89)
Last command: minimize 1e-25 1e-25 500000 1000000
ERROR: Per-atom energy was not tallied on needed timestep (../compute_pe_atom.cpp:89)
Last command: minimize 1e-25 1e-25 500000 1000000
ERROR: Per-atom energy was not tallied on needed timestep (../compute_pe_atom.cpp:89)
Last command: minimize 1e-25 1e-25 500000 1000000
ERROR: Per-atom energy was not tallied on needed timestep (../compute_pe_atom.cpp:89)
Last command: minimize 1e-25 1e-25 500000 1000000
ERROR: Per-atom energy was not tallied on needed timestep (../compute_pe_atom.cpp:89)
Last command: minimize 1e-25 1e-25 500000 1000000
ERROR: Per-atom energy was not tallied on needed timestep (../compute_pe_atom.cpp:89)
Last command: minimize 1e-25 1e-25 500000 1000000
ERROR: Per-atom energy was not tallied on needed timestep (../compute_pe_atom.cpp:89)
Last command: minimize 1e-25 1e-25 500000 1000000
ERROR: Per-atom energy was not tallied on needed timestep (../compute_pe_atom.cpp:89)
Last command: minimize 1e-25 1e-25 500000 1000000
ERROR: Per-atom energy was not tallied on needed timestep (../compute_pe_atom.cpp:89)
Last command: minimize 1e-25 1e-25 500000 1000000
ERROR: Per-atom energy was not tallied on needed timestep (../compute_pe_atom.cpp:89)
Last command: minimize 1e-25 1e-25 500000 1000000
ERROR: Per-atom energy was not tallied on needed timestep (../compute_pe_atom.cpp:89)
Last command: minimize 1e-25 1e-25 500000 1000000
ERROR: Per-atom energy was not tallied on needed timestep (../compute_pe_atom.cpp:89)
Last command: minimize 1e-25 1e-25 500000 1000000
ERROR: Per-atom energy was not tallied on needed timestep (../compute_pe_atom.cpp:89)
Last command: minimize 1e-25 1e-25 500000 1000000
ERROR: Per-atom energy was not tallied on needed timestep (../compute_pe_atom.cpp:89)
Last command: minimize 1e-25 1e-25 500000 1000000
ERROR: Per-atom energy was not tallied on needed timestep (../compute_pe_atom.cpp:89)
Last command: minimize 1e-25 1e-25 500000 1000000
ERROR: Per-atom energy was not tallied on needed timestep (../compute_pe_atom.cpp:89)
Last command: minimize 1e-25 1e-25 500000 1000000
      60   -1400.2417       22.979    47.112999        29.92    25992.015    22179.901    25406.766    30389.379   -1400.2417 
ERROR: Per-atom energy was not tallied on needed timestep (../compute_pe_atom.cpp:89)
Last command: minimize 1e-25 1e-25 500000 1000000
ERROR: Per-atom energy was not tallied on needed timestep (../compute_pe_atom.cpp:89)
Last command: minimize 1e-25 1e-25 500000 1000000
ERROR: Per-atom energy was not tallied on needed timestep (../compute_pe_atom.cpp:89)
Last command: minimize 1e-25 1e-25 500000 1000000
ERROR: Per-atom energy was not tallied on needed timestep (../compute_pe_atom.cpp:89)
Last command: minimize 1e-25 1e-25 500000 1000000
ERROR: Per-atom energy was not tallied on needed timestep (../compute_pe_atom.cpp:89)
Last command: minimize 1e-25 1e-25 500000 1000000
ERROR: Per-atom energy was not tallied on needed timestep (../compute_pe_atom.cpp:89)
Last command: minimize 1e-25 1e-25 500000 1000000
ERROR: Per-atom energy was not tallied on needed timestep (../compute_pe_atom.cpp:89)
Last command: minimize 1e-25 1e-25 500000 1000000
ERROR: Per-atom energy was not tallied on needed timestep (../compute_pe_atom.cpp:89)
Last command: minimize 1e-25 1e-25 500000 1000000
ERROR: Per-atom energy was not tallied on needed timestep (../compute_pe_atom.cpp:89)
Last command: minimize 1e-25 1e-25 500000 1000000
ERROR: Per-atom energy was not tallied on needed timestep (../compute_pe_atom.cpp:89)
Last command: minimize 1e-25 1e-25 500000 1000000
ERROR: Per-atom energy was not tallied on needed timestep (../compute_pe_atom.cpp:89)
Last command: minimize 1e-25 1e-25 500000 1000000
ERROR: Per-atom energy was not tallied on needed timestep (../compute_pe_atom.cpp:89)
Last command: minimize 1e-25 1e-25 500000 1000000
ERROR: Per-atom energy was not tallied on needed timestep (../compute_pe_atom.cpp:89)
Last command: minimize 1e-25 1e-25 500000 1000000
ERROR: Per-atom energy was not tallied on needed timestep (../compute_pe_atom.cpp:89)
Last command: minimize 1e-25 1e-25 500000 1000000
ERROR: Per-atom energy was not tallied on needed timestep (../compute_pe_atom.cpp:89)
Last command: minimize 1e-25 1e-25 500000 1000000
ERROR: Per-atom energy was not tallied on needed timestep (../compute_pe_atom.cpp:89)
Last command: minimize 1e-25 1e-25 500000 1000000
ERROR: Per-atom energy was not tallied on needed timestep (../compute_pe_atom.cpp:89)
Last command: minimize 1e-25 1e-25 500000 1000000
ERROR: Per-atom energy was not tallied on needed timestep (../compute_pe_atom.cpp:89)
Last command: minimize 1e-25 1e-25 500000 1000000
ERROR: Per-atom energy was not tallied on needed timestep (../compute_pe_atom.cpp:89)
Last command: minimize 1e-25 1e-25 500000 1000000
ERROR: Per-atom energy was not tallied on needed timestep (../compute_pe_atom.cpp:89)
Last command: minimize 1e-25 1e-25 500000 1000000
ERROR: Per-atom energy was not tallied on needed timestep (../compute_pe_atom.cpp:89)
Last command: minimize 1e-25 1e-25 500000 1000000
ERROR: Per-atom energy was not tallied on needed timestep (../compute_pe_atom.cpp:89)
Last command: minimize 1e-25 1e-25 500000 1000000
ERROR: Per-atom energy was not tallied on needed timestep (../compute_pe_atom.cpp:89)
Last command: minimize 1e-25 1e-25 500000 1000000
ERROR: Per-atom energy was not tallied on needed timestep (../compute_pe_atom.cpp:89)
Last command: minimize 1e-25 1e-25 500000 1000000
ERROR: Per-atom energy was not tallied on needed timestep (../compute_pe_atom.cpp:89)
Last command: minimize 1e-25 1e-25 500000 1000000
ERROR: Per-atom energy was not tallied on needed timestep (../compute_pe_atom.cpp:89)
Last command: minimize 1e-25 1e-25 500000 1000000
ERROR: Per-atom energy was not tallied on needed timestep (../compute_pe_atom.cpp:89)
Last command: minimize 1e-25 1e-25 500000 1000000
ERROR: Per-atom energy was not tallied on needed timestep (../compute_pe_atom.cpp:89)
Last command: minimize 1e-25 1e-25 500000 1000000
ERROR: Per-atom energy was not tallied on needed timestep (../compute_pe_atom.cpp:89)
Last command: minimize 1e-25 1e-25 500000 1000000
ERROR: Per-atom energy was not tallied on needed timestep (../compute_pe_atom.cpp:89)
Last command: minimize 1e-25 1e-25 500000 1000000
ERROR: Per-atom energy was not tallied on needed timestep (../compute_pe_atom.cpp:89)
Last command: minimize 1e-25 1e-25 500000 1000000
ERROR: Per-atom energy was not tallied on needed timestep (../compute_pe_atom.cpp:89)
Last command: minimize 1e-25 1e-25 500000 1000000
ERROR: Per-atom energy was not tallied on needed timestep (../compute_pe_atom.cpp:89)
Last command: minimize 1e-25 1e-25 500000 1000000
ERROR: Per-atom energy was not tallied on needed timestep (../compute_pe_atom.cpp:89)
Last command: minimize 1e-25 1e-25 500000 1000000
ERROR: Per-atom energy was not tallied on needed timestep (../compute_pe_atom.cpp:89)
Last command: minimize 1e-25 1e-25 500000 1000000
ERROR: Per-atom energy was not tallied on needed timestep (../compute_pe_atom.cpp:89)
Last command: minimize 1e-25 1e-25 500000 1000000
ERROR: Per-atom energy was not tallied on needed timestep (../compute_pe_atom.cpp:89)
Last command: minimize 1e-25 1e-25 500000 1000000
ERROR: Per-atom energy was not tallied on needed timestep (../compute_pe_atom.cpp:89)
Last command: minimize 1e-25 1e-25 500000 1000000
ERROR: Per-atom energy was not tallied on needed timestep (../compute_pe_atom.cpp:89)
Last command: minimize 1e-25 1e-25 500000 1000000
ERROR: Per-atom energy was not tallied on needed timestep (../compute_pe_atom.cpp:89)
Last command: minimize 1e-25 1e-25 500000 1000000
ERROR: Per-atom energy was not tallied on needed timestep (../compute_pe_atom.cpp:89)
Last command: minimize 1e-25 1e-25 500000 1000000
ERROR: Per-atom energy was not tallied on needed timestep (../compute_pe_atom.cpp:89)
Last command: minimize 1e-25 1e-25 500000 1000000
ERROR: Per-atom energy was not tallied on needed timestep (../compute_pe_atom.cpp:89)
Last command: minimize 1e-25 1e-25 500000 1000000
ERROR: Per-atom energy was not tallied on needed timestep (../compute_pe_atom.cpp:89)
Last command: minimize 1e-25 1e-25 500000 1000000
ERROR: Per-atom energy was not tallied on needed timestep (../compute_pe_atom.cpp:89)
Last command: minimize 1e-25 1e-25 500000 1000000
ERROR: Per-atom energy was not tallied on needed timestep (../compute_pe_atom.cpp:89)
Last command: minimize 1e-25 1e-25 500000 1000000
ERROR: Per-atom energy was not tallied on needed timestep (../compute_pe_atom.cpp:89)
Last command: minimize 1e-25 1e-25 500000 1000000
ERROR: Per-atom energy was not tallied on needed timestep (../compute_pe_atom.cpp:89)
Last command: minimize 1e-25 1e-25 500000 1000000
ERROR: Per-atom energy was not tallied on needed timestep (../compute_pe_atom.cpp:89)
Last command: minimize 1e-25 1e-25 500000 1000000
ERROR: Per-atom energy was not tallied on needed timestep (../compute_pe_atom.cpp:89)
Last command: minimize 1e-25 1e-25 500000 1000000
ERROR: Per-atom energy was not tallied on needed timestep (../compute_pe_atom.cpp:89)
Last command: minimize 1e-25 1e-25 500000 1000000
ERROR: Per-atom energy was not tallied on needed timestep (../compute_pe_atom.cpp:89)
Last command: minimize 1e-25 1e-25 500000 1000000
ERROR: Per-atom energy was not tallied on needed timestep (../compute_pe_atom.cpp:89)
Last command: minimize 1e-25 1e-25 500000 1000000
ERROR: Per-atom energy was not tallied on needed timestep (../compute_pe_atom.cpp:89)
Last command: minimize 1e-25 1e-25 500000 1000000
ERROR: Per-atom energy was not tallied on needed timestep (../compute_pe_atom.cpp:89)
Last command: minimize 1e-25 1e-25 500000 1000000
ERROR: Per-atom energy was not tallied on needed timestep (../compute_pe_atom.cpp:89)
Last command: minimize 1e-25 1e-25 500000 1000000
ERROR: Per-atom energy was not tallied on needed timestep (../compute_pe_atom.cpp:89)
Last command: minimize 1e-25 1e-25 500000 1000000
ERROR: Per-atom energy was not tallied on needed timestep (../compute_pe_atom.cpp:89)
Last command: minimize 1e-25 1e-25 500000 1000000
ERROR: Per-atom energy was not tallied on needed timestep (../compute_pe_atom.cpp:89)
Last command: minimize 1e-25 1e-25 500000 1000000
ERROR: Per-atom energy was not tallied on needed timestep (../compute_pe_atom.cpp:89)
Last command: minimize 1e-25 1e-25 500000 1000000
ERROR: Per-atom energy was not tallied on needed timestep (../compute_pe_atom.cpp:89)
Last command: minimize 1e-25 1e-25 500000 1000000
ERROR: Per-atom energy was not tallied on needed timestep (../compute_pe_atom.cpp:89)
Last command: minimize 1e-25 1e-25 500000 1000000
ERROR: Per-atom energy was not tallied on needed timestep (../compute_pe_atom.cpp:89)
Last command: minimize 1e-25 1e-25 500000 1000000
ERROR: Per-atom energy was not tallied on needed timestep (../compute_pe_atom.cpp:89)
Last command: minimize 1e-25 1e-25 500000 1000000
ERROR: Per-atom energy was not tallied on needed timestep (../compute_pe_atom.cpp:89)
Last command: minimize 1e-25 1e-25 500000 1000000
ERROR: Per-atom energy was not tallied on needed timestep (../compute_pe_atom.cpp:89)
Last command: minimize 1e-25 1e-25 500000 1000000
ERROR: Per-atom energy was not tallied on needed timestep (../compute_pe_atom.cpp:89)
Last command: minimize 1e-25 1e-25 500000 1000000
ERROR: Per-atom energy was not tallied on needed timestep (../compute_pe_atom.cpp:89)
Last command: minimize 1e-25 1e-25 500000 1000000
ERROR: Per-atom energy was not tallied on needed timestep (../compute_pe_atom.cpp:89)
Last command: minimize 1e-25 1e-25 500000 1000000
ERROR: Per-atom energy was not tallied on needed timestep (../compute_pe_atom.cpp:89)
Last command: minimize 1e-25 1e-25 500000 1000000
ERROR: Per-atom energy was not tallied on needed timestep (../compute_pe_atom.cpp:89)
Last command: minimize 1e-25 1e-25 500000 1000000
ERROR: Per-atom energy was not tallied on needed timestep (../compute_pe_atom.cpp:89)
Last command: minimize 1e-25 1e-25 500000 1000000
ERROR: Per-atom energy was not tallied on needed timestep (../compute_pe_atom.cpp:89)
Last command: minimize 1e-25 1e-25 500000 1000000
ERROR: Per-atom energy was not tallied on needed timestep (../compute_pe_atom.cpp:89)
Last command: minimize 1e-25 1e-25 500000 1000000
ERROR: Per-atom energy was not tallied on needed timestep (../compute_pe_atom.cpp:89)
Last command: minimize 1e-25 1e-25 500000 1000000
ERROR: Per-atom energy was not tallied on needed timestep (../compute_pe_atom.cpp:89)
Last command: minimize 1e-25 1e-25 500000 1000000
ERROR: Per-atom energy was not tallied on needed timestep (../compute_pe_atom.cpp:89)
Last command: minimize 1e-25 1e-25 500000 1000000
ERROR: Per-atom energy was not tallied on needed timestep (../compute_pe_atom.cpp:89)
Last command: minimize 1e-25 1e-25 500000 1000000
ERROR: Per-atom energy was not tallied on needed timestep (../compute_pe_atom.cpp:89)
Last command: minimize 1e-25 1e-25 500000 1000000
ERROR: Per-atom energy was not tallied on needed timestep (../compute_pe_atom.cpp:89)
Last command: minimize 1e-25 1e-25 500000 1000000
ERROR: Per-atom energy was not tallied on needed timestep (../compute_pe_atom.cpp:89)
Last command: minimize 1e-25 1e-25 500000 1000000
ERROR: Per-atom energy was not tallied on needed timestep (../compute_pe_atom.cpp:89)
Last command: minimize 1e-25 1e-25 500000 1000000
ERROR: Per-atom energy was not tallied on needed timestep (../compute_pe_atom.cpp:89)
Last command: minimize 1e-25 1e-25 500000 1000000
ERROR: Per-atom energy was not tallied on needed timestep (../compute_pe_atom.cpp:89)
Last command: minimize 1e-25 1e-25 500000 1000000
ERROR: Per-atom energy was not tallied on needed timestep (../compute_pe_atom.cpp:89)
Last command: minimize 1e-25 1e-25 500000 1000000
ERROR: Per-atom energy was not tallied on needed timestep (../compute_pe_atom.cpp:89)
Last command: minimize 1e-25 1e-25 500000 1000000
ERROR: Per-atom energy was not tallied on needed timestep (../compute_pe_atom.cpp:89)
Last command: minimize 1e-25 1e-25 500000 1000000
ERROR: Per-atom energy was not tallied on needed timestep (../compute_pe_atom.cpp:89)
Last command: minimize 1e-25 1e-25 500000 1000000
ERROR: Per-atom energy was not tallied on needed timestep (../compute_pe_atom.cpp:89)
Last command: minimize 1e-25 1e-25 500000 1000000
ERROR: Per-atom energy was not tallied on needed timestep (../compute_pe_atom.cpp:89)
Last command: minimize 1e-25 1e-25 500000 1000000
ERROR: Per-atom energy was not tallied on needed timestep (../compute_pe_atom.cpp:89)
Last command: minimize 1e-25 1e-25 500000 1000000
ERROR: Per-atom energy was not tallied on needed timestep (../compute_pe_atom.cpp:89)
Last command: minimize 1e-25 1e-25 500000 1000000
ERROR: Per-atom energy was not tallied on needed timestep (../compute_pe_atom.cpp:89)
Last command: minimize 1e-25 1e-25 500000 1000000
ERROR: Per-atom energy was not tallied on needed timestep (../compute_pe_atom.cpp:89)
Last command: minimize 1e-25 1e-25 500000 1000000
ERROR: Per-atom energy was not tallied on needed timestep (../compute_pe_atom.cpp:89)
Last command: minimize 1e-25 1e-25 500000 1000000
ERROR: Per-atom energy was not tallied on needed timestep (../compute_pe_atom.cpp:89)
Last command: minimize 1e-25 1e-25 500000 1000000
ERROR: Per-atom energy was not tallied on needed timestep (../compute_pe_atom.cpp:89)
Last command: minimize 1e-25 1e-25 500000 1000000
ERROR: Per-atom energy was not tallied on needed timestep (../compute_pe_atom.cpp:89)
Last command: minimize 1e-25 1e-25 500000 1000000
ERROR: Per-atom energy was not tallied on needed timestep (../compute_pe_atom.cpp:89)
Last command: minimize 1e-25 1e-25 500000 1000000
ERROR: Per-atom energy was not tallied on needed timestep (../compute_pe_atom.cpp:89)
Last command: minimize 1e-25 1e-25 500000 1000000
ERROR: Per-atom energy was not tallied on needed timestep (../compute_pe_atom.cpp:89)
Last command: minimize 1e-25 1e-25 500000 1000000
ERROR: Per-atom energy was not tallied on needed timestep (../compute_pe_atom.cpp:89)
Last command: minimize 1e-25 1e-25 500000 1000000
ERROR: Per-atom energy was not tallied on needed timestep (../compute_pe_atom.cpp:89)
Last command: minimize 1e-25 1e-25 500000 1000000
ERROR: Per-atom energy was not tallied on needed timestep (../compute_pe_atom.cpp:89)
Last command: minimize 1e-25 1e-25 500000 1000000
ERROR: Per-atom energy was not tallied on needed timestep (../compute_pe_atom.cpp:89)
Last command: minimize 1e-25 1e-25 500000 1000000
ERROR: Per-atom energy was not tallied on needed timestep (../compute_pe_atom.cpp:89)
Last command: minimize 1e-25 1e-25 500000 1000000
ERROR: Per-atom energy was not tallied on needed timestep (../compute_pe_atom.cpp:89)
Last command: minimize 1e-25 1e-25 500000 1000000
ERROR: Per-atom energy was not tallied on needed timestep (../compute_pe_atom.cpp:89)
Last command: minimize 1e-25 1e-25 500000 1000000
      80   -1455.5013       22.979    47.112999        29.92    24710.954    21615.952    25013.233    27503.679   -1455.5013 
ERROR: Per-atom energy was not tallied on needed timestep (../compute_pe_atom.cpp:89)
Last command: minimize 1e-25 1e-25 500000 1000000
ERROR: Per-atom energy was not tallied on needed timestep (../compute_pe_atom.cpp:89)
Last command: minimize 1e-25 1e-25 500000 1000000
ERROR: Per-atom energy was not tallied on needed timestep (../compute_pe_atom.cpp:89)
Last command: minimize 1e-25 1e-25 500000 1000000
ERROR: Per-atom energy was not tallied on needed timestep (../compute_pe_atom.cpp:89)
Last command: minimize 1e-25 1e-25 500000 1000000
ERROR: Per-atom energy was not tallied on needed timestep (../compute_pe_atom.cpp:89)
Last command: minimize 1e-25 1e-25 500000 1000000
ERROR: Per-atom energy was not tallied on needed timestep (../compute_pe_atom.cpp:89)
Last command: minimize 1e-25 1e-25 500000 1000000
ERROR: Per-atom energy was not tallied on needed timestep (../compute_pe_atom.cpp:89)
Last command: minimize 1e-25 1e-25 500000 1000000
ERROR: Per-atom energy was not tallied on needed timestep (../compute_pe_atom.cpp:89)
Last command: minimize 1e-25 1e-25 500000 1000000
ERROR: Per-atom energy was not tallied on needed timestep (../compute_pe_atom.cpp:89)
Last command: minimize 1e-25 1e-25 500000 1000000
ERROR: Per-atom energy was not tallied on needed timestep (../compute_pe_atom.cpp:89)
Last command: minimize 1e-25 1e-25 500000 1000000
ERROR: Per-atom energy was not tallied on needed timestep (../compute_pe_atom.cpp:89)
Last command: minimize 1e-25 1e-25 500000 1000000
ERROR: Per-atom energy was not tallied on needed timestep (../compute_pe_atom.cpp:89)
Last command: minimize 1e-25 1e-25 500000 1000000
ERROR: Per-atom energy was not tallied on needed timestep (../compute_pe_atom.cpp:89)
Last command: minimize 1e-25 1e-25 500000 1000000
ERROR: Per-atom energy was not tallied on needed timestep (../compute_pe_atom.cpp:89)
Last command: minimize 1e-25 1e-25 500000 1000000
ERROR: Per-atom energy was not tallied on needed timestep (../compute_pe_atom.cpp:89)
Last command: minimize 1e-25 1e-25 500000 1000000
ERROR: Per-atom energy was not tallied on needed timestep (../compute_pe_atom.cpp:89)
Last command: minimize 1e-25 1e-25 500000 1000000
ERROR: Per-atom energy was not tallied on needed timestep (../compute_pe_atom.cpp:89)
Last command: minimize 1e-25 1e-25 500000 1000000
ERROR: Per-atom energy was not tallied on needed timestep (../compute_pe_atom.cpp:89)
Last command: minimize 1e-25 1e-25 500000 1000000
ERROR: Per-atom energy was not tallied on needed timestep (../compute_pe_atom.cpp:89)
Last command: minimize 1e-25 1e-25 500000 1000000
ERROR: Per-atom energy was not tallied on needed timestep (../compute_pe_atom.cpp:89)
Last command: minimize 1e-25 1e-25 500000 1000000
ERROR: Per-atom energy was not tallied on needed timestep (../compute_pe_atom.cpp:89)
Last command: minimize 1e-25 1e-25 500000 1000000
ERROR: Per-atom energy was not tallied on needed timestep (../compute_pe_atom.cpp:89)
Last command: minimize 1e-25 1e-25 500000 1000000
ERROR: Per-atom energy was not tallied on needed timestep (../compute_pe_atom.cpp:89)
Last command: minimize 1e-25 1e-25 500000 1000000
ERROR: Per-atom energy was not tallied on needed timestep (../compute_pe_atom.cpp:89)
Last command: minimize 1e-25 1e-25 500000 1000000
ERROR: Per-atom energy was not tallied on needed timestep (../compute_pe_atom.cpp:89)
Last command: minimize 1e-25 1e-25 500000 1000000
ERROR: Per-atom energy was not tallied on needed timestep (../compute_pe_atom.cpp:89)
Last command: minimize 1e-25 1e-25 500000 1000000
ERROR: Per-atom energy was not tallied on needed timestep (../compute_pe_atom.cpp:89)
Last command: minimize 1e-25 1e-25 500000 1000000
ERROR: Per-atom energy was not tallied on needed timestep (../compute_pe_atom.cpp:89)
Last command: minimize 1e-25 1e-25 500000 1000000
ERROR: Per-atom energy was not tallied on needed timestep (../compute_pe_atom.cpp:89)
Last command: minimize 1e-25 1e-25 500000 1000000
ERROR: Per-atom energy was not tallied on needed timestep (../compute_pe_atom.cpp:89)
Last command: minimize 1e-25 1e-25 500000 1000000
ERROR: Per-atom energy was not tallied on needed timestep (../compute_pe_atom.cpp:89)
Last command: minimize 1e-25 1e-25 500000 1000000
ERROR: Per-atom energy was not tallied on needed timestep (../compute_pe_atom.cpp:89)
Last command: minimize 1e-25 1e-25 500000 1000000
ERROR: Per-atom energy was not tallied on needed timestep (../compute_pe_atom.cpp:89)
Last command: minimize 1e-25 1e-25 500000 1000000
ERROR: Per-atom energy was not tallied on needed timestep (../compute_pe_atom.cpp:89)
Last command: minimize 1e-25 1e-25 500000 1000000
ERROR: Per-atom energy was not tallied on needed timestep (../compute_pe_atom.cpp:89)
Last command: minimize 1e-25 1e-25 500000 1000000
ERROR: Per-atom energy was not tallied on needed timestep (../compute_pe_atom.cpp:89)
Last command: minimize 1e-25 1e-25 500000 1000000
ERROR: Per-atom energy was not tallied on needed timestep (../compute_pe_atom.cpp:89)
Last command: minimize 1e-25 1e-25 500000 1000000
ERROR: Per-atom energy was not tallied on needed timestep (../compute_pe_atom.cpp:89)
Last command: minimize 1e-25 1e-25 500000 1000000
ERROR: Per-atom energy was not tallied on needed timestep (../compute_pe_atom.cpp:89)
Last command: minimize 1e-25 1e-25 500000 1000000
ERROR: Per-atom energy was not tallied on needed timestep (../compute_pe_atom.cpp:89)
Last command: minimize 1e-25 1e-25 500000 1000000
ERROR: Per-atom energy was not tallied on needed timestep (../compute_pe_atom.cpp:89)
Last command: minimize 1e-25 1e-25 500000 1000000
ERROR: Per-atom energy was not tallied on needed timestep (../compute_pe_atom.cpp:89)
Last command: minimize 1e-25 1e-25 500000 1000000
ERROR: Per-atom energy was not tallied on needed timestep (../compute_pe_atom.cpp:89)
Last command: minimize 1e-25 1e-25 500000 1000000
ERROR: Per-atom energy was not tallied on needed timestep (../compute_pe_atom.cpp:89)
Last command: minimize 1e-25 1e-25 500000 1000000
ERROR: Per-atom energy was not tallied on needed timestep (../compute_pe_atom.cpp:89)
Last command: minimize 1e-25 1e-25 500000 1000000
ERROR: Per-atom energy was not tallied on needed timestep (../compute_pe_atom.cpp:89)
Last command: minimize 1e-25 1e-25 500000 1000000
ERROR: Per-atom energy was not tallied on needed timestep (../compute_pe_atom.cpp:89)
Last command: minimize 1e-25 1e-25 500000 1000000
ERROR: Per-atom energy was not tallied on needed timestep (../compute_pe_atom.cpp:89)
Last command: minimize 1e-25 1e-25 500000 1000000
ERROR: Per-atom energy was not tallied on needed timestep (../compute_pe_atom.cpp:89)
Last command: minimize 1e-25 1e-25 500000 1000000
ERROR: Per-atom energy was not tallied on needed timestep (../compute_pe_atom.cpp:89)
Last command: minimize 1e-25 1e-25 500000 1000000
ERROR: Per-atom energy was not tallied on needed timestep (../compute_pe_atom.cpp:89)
Last command: minimize 1e-25 1e-25 500000 1000000
ERROR: Per-atom energy was not tallied on needed timestep (../compute_pe_atom.cpp:89)
Last command: minimize 1e-25 1e-25 500000 1000000
ERROR: Per-atom energy was not tallied on needed timestep (../compute_pe_atom.cpp:89)
Last command: minimize 1e-25 1e-25 500000 1000000
ERROR: Per-atom energy was not tallied on needed timestep (../compute_pe_atom.cpp:89)
Last command: minimize 1e-25 1e-25 500000 1000000
ERROR: Per-atom energy was not tallied on needed timestep (../compute_pe_atom.cpp:89)
Last command: minimize 1e-25 1e-25 500000 1000000
ERROR: Per-atom energy was not tallied on needed timestep (../compute_pe_atom.cpp:89)
Last command: minimize 1e-25 1e-25 500000 1000000
ERROR: Per-atom energy was not tallied on needed timestep (../compute_pe_atom.cpp:89)
Last command: minimize 1e-25 1e-25 500000 1000000
ERROR: Per-atom energy was not tallied on needed timestep (../compute_pe_atom.cpp:89)
Last command: minimize 1e-25 1e-25 500000 1000000
ERROR: Per-atom energy was not tallied on needed timestep (../compute_pe_atom.cpp:89)
Last command: minimize 1e-25 1e-25 500000 1000000
ERROR: Per-atom energy was not tallied on needed timestep (../compute_pe_atom.cpp:89)
Last command: minimize 1e-25 1e-25 500000 1000000
ERROR: Per-atom energy was not tallied on needed timestep (../compute_pe_atom.cpp:89)
Last command: minimize 1e-25 1e-25 500000 1000000
ERROR: Per-atom energy was not tallied on needed timestep (../compute_pe_atom.cpp:89)
Last command: minimize 1e-25 1e-25 500000 1000000
ERROR: Per-atom energy was not tallied on needed timestep (../compute_pe_atom.cpp:89)
Last command: minimize 1e-25 1e-25 500000 1000000
ERROR: Per-atom energy was not tallied on needed timestep (../compute_pe_atom.cpp:89)
Last command: minimize 1e-25 1e-25 500000 1000000
ERROR: Per-atom energy was not tallied on needed timestep (../compute_pe_atom.cpp:89)
Last command: minimize 1e-25 1e-25 500000 1000000
ERROR: Per-atom energy was not tallied on needed timestep (../compute_pe_atom.cpp:89)
Last command: minimize 1e-25 1e-25 500000 1000000
ERROR: Per-atom energy was not tallied on needed timestep (../compute_pe_atom.cpp:89)
Last command: minimize 1e-25 1e-25 500000 1000000
ERROR: Per-atom energy was not tallied on needed timestep (../compute_pe_atom.cpp:89)
Last command: minimize 1e-25 1e-25 500000 1000000
ERROR: Per-atom energy was not tallied on needed timestep (../compute_pe_atom.cpp:89)
Last command: minimize 1e-25 1e-25 500000 1000000
ERROR: Per-atom energy was not tallied on needed timestep (../compute_pe_atom.cpp:89)
Last command: minimize 1e-25 1e-25 500000 1000000
ERROR: Per-atom energy was not tallied on needed timestep (../compute_pe_atom.cpp:89)
Last command: minimize 1e-25 1e-25 500000 1000000
ERROR: Per-atom energy was not tallied on needed timestep (../compute_pe_atom.cpp:89)
Last command: minimize 1e-25 1e-25 500000 1000000
ERROR: Per-atom energy was not tallied on needed timestep (../compute_pe_atom.cpp:89)
Last command: minimize 1e-25 1e-25 500000 1000000
ERROR: Per-atom energy was not tallied on needed timestep (../compute_pe_atom.cpp:89)
Last command: minimize 1e-25 1e-25 500000 1000000
ERROR: Per-atom energy was not tallied on needed timestep (../compute_pe_atom.cpp:89)
Last command: minimize 1e-25 1e-25 500000 1000000
ERROR: Per-atom energy was not tallied on needed timestep (../compute_pe_atom.cpp:89)
Last command: minimize 1e-25 1e-25 500000 1000000
ERROR: Per-atom energy was not tallied on needed timestep (../compute_pe_atom.cpp:89)
Last command: minimize 1e-25 1e-25 500000 1000000
ERROR: Per-atom energy was not tallied on needed timestep (../compute_pe_atom.cpp:89)
Last command: minimize 1e-25 1e-25 500000 1000000
ERROR: Per-atom energy was not tallied on needed timestep (../compute_pe_atom.cpp:89)
Last command: minimize 1e-25 1e-25 500000 1000000
ERROR: Per-atom energy was not tallied on needed timestep (../compute_pe_atom.cpp:89)
Last command: minimize 1e-25 1e-25 500000 1000000
ERROR: Per-atom energy was not tallied on needed timestep (../compute_pe_atom.cpp:89)
Last command: minimize 1e-25 1e-25 500000 1000000
ERROR: Per-atom energy was not tallied on needed timestep (../compute_pe_atom.cpp:89)
Last command: minimize 1e-25 1e-25 500000 1000000
ERROR: Per-atom energy was not tallied on needed timestep (../compute_pe_atom.cpp:89)
Last command: minimize 1e-25 1e-25 500000 1000000
ERROR: Per-atom energy was not tallied on needed timestep (../compute_pe_atom.cpp:89)
Last command: minimize 1e-25 1e-25 500000 1000000
ERROR: Per-atom energy was not tallied on needed timestep (../compute_pe_atom.cpp:89)
Last command: minimize 1e-25 1e-25 500000 1000000
ERROR: Per-atom energy was not tallied on needed timestep (../compute_pe_atom.cpp:89)
Last command: minimize 1e-25 1e-25 500000 1000000
ERROR: Per-atom energy was not tallied on needed timestep (../compute_pe_atom.cpp:89)
Last command: minimize 1e-25 1e-25 500000 1000000
ERROR: Per-atom energy was not tallied on needed timestep (../compute_pe_atom.cpp:89)
Last command: minimize 1e-25 1e-25 500000 1000000
ERROR: Per-atom energy was not tallied on needed timestep (../compute_pe_atom.cpp:89)
Last command: minimize 1e-25 1e-25 500000 1000000
ERROR: Per-atom energy was not tallied on needed timestep (../compute_pe_atom.cpp:89)
Last command: minimize 1e-25 1e-25 500000 1000000
ERROR: Per-atom energy was not tallied on needed timestep (../compute_pe_atom.cpp:89)
Last command: minimize 1e-25 1e-25 500000 1000000
ERROR: Per-atom energy was not tallied on needed timestep (../compute_pe_atom.cpp:89)
Last command: minimize 1e-25 1e-25 500000 1000000
ERROR: Per-atom energy was not tallied on needed timestep (../compute_pe_atom.cpp:89)
Last command: minimize 1e-25 1e-25 500000 1000000
ERROR: Per-atom energy was not tallied on needed timestep (../compute_pe_atom.cpp:89)
Last command: minimize 1e-25 1e-25 500000 1000000
ERROR: Per-atom energy was not tallied on needed timestep (../compute_pe_atom.cpp:89)
Last command: minimize 1e-25 1e-25 500000 1000000
ERROR: Per-atom energy was not tallied on needed timestep (../compute_pe_atom.cpp:89)
Last command: minimize 1e-25 1e-25 500000 1000000
ERROR: Per-atom energy was not tallied on needed timestep (../compute_pe_atom.cpp:89)
Last command: minimize 1e-25 1e-25 500000 1000000
ERROR: Per-atom energy was not tallied on needed timestep (../compute_pe_atom.cpp:89)
Last command: minimize 1e-25 1e-25 500000 1000000
ERROR: Per-atom energy was not tallied on needed timestep (../compute_pe_atom.cpp:89)
Last command: minimize 1e-25 1e-25 500000 1000000
ERROR: Per-atom energy was not tallied on needed timestep (../compute_pe_atom.cpp:89)
Last command: minimize 1e-25 1e-25 500000 1000000
ERROR: Per-atom energy was not tallied on needed timestep (../compute_pe_atom.cpp:89)
Last command: minimize 1e-25 1e-25 500000 1000000
ERROR: Per-atom energy was not tallied on needed timestep (../compute_pe_atom.cpp:89)
Last command: minimize 1e-25 1e-25 500000 1000000
ERROR: Per-atom energy was not tallied on needed timestep (../compute_pe_atom.cpp:89)
Last command: minimize 1e-25 1e-25 500000 1000000
ERROR: Per-atom energy was not tallied on needed timestep (../compute_pe_atom.cpp:89)
Last command: minimize 1e-25 1e-25 500000 1000000
ERROR: Per-atom energy was not tallied on needed timestep (../compute_pe_atom.cpp:89)
Last command: minimize 1e-25 1e-25 500000 1000000
ERROR: Per-atom energy was not tallied on needed timestep (../compute_pe_atom.cpp:89)
Last command: minimize 1e-25 1e-25 500000 1000000
ERROR: Per-atom energy was not tallied on needed timestep (../compute_pe_atom.cpp:89)
Last command: minimize 1e-25 1e-25 500000 1000000
ERROR: Per-atom energy was not tallied on needed timestep (../compute_pe_atom.cpp:89)
Last command: minimize 1e-25 1e-25 500000 1000000
ERROR: Per-atom energy was not tallied on needed timestep (../compute_pe_atom.cpp:89)
Last command: minimize 1e-25 1e-25 500000 1000000
ERROR: Per-atom energy was not tallied on needed timestep (../compute_pe_atom.cpp:89)
Last command: minimize 1e-25 1e-25 500000 1000000
ERROR: Per-atom energy was not tallied on needed timestep (../compute_pe_atom.cpp:89)
Last command: minimize 1e-25 1e-25 500000 1000000
ERROR: Per-atom energy was not tallied on needed timestep (../compute_pe_atom.cpp:89)
Last command: minimize 1e-25 1e-25 500000 1000000
ERROR: Per-atom energy was not tallied on needed timestep (../compute_pe_atom.cpp:89)
Last command: minimize 1e-25 1e-25 500000 1000000
ERROR: Per-atom energy was not tallied on needed timestep (../compute_pe_atom.cpp:89)
Last command: minimize 1e-25 1e-25 500000 1000000
ERROR: Per-atom energy was not tallied on needed timestep (../compute_pe_atom.cpp:89)
Last command: minimize 1e-25 1e-25 500000 1000000
ERROR: Per-atom energy was not tallied on needed timestep (../compute_pe_atom.cpp:89)
Last command: minimize 1e-25 1e-25 500000 1000000
     100   -1487.1404       22.979    47.112999        29.92    24049.994     21907.72    24539.445    25702.818   -1487.1404 
ERROR: Per-atom energy was not tallied on needed timestep (../compute_pe_atom.cpp:89)
Last command: minimize 1e-25 1e-25 500000 1000000
ERROR: Per-atom energy was not tallied on needed timestep (../compute_pe_atom.cpp:89)
Last command: minimize 1e-25 1e-25 500000 1000000
ERROR: Per-atom energy was not tallied on needed timestep (../compute_pe_atom.cpp:89)
Last command: minimize 1e-25 1e-25 500000 1000000
ERROR: Per-atom energy was not tallied on needed timestep (../compute_pe_atom.cpp:89)
Last command: minimize 1e-25 1e-25 500000 1000000
ERROR: Per-atom energy was not tallied on needed timestep (../compute_pe_atom.cpp:89)
Last command: minimize 1e-25 1e-25 500000 1000000
ERROR: Per-atom energy was not tallied on needed timestep (../compute_pe_atom.cpp:89)
Last command: minimize 1e-25 1e-25 500000 1000000
ERROR: Per-atom energy was not tallied on needed timestep (../compute_pe_atom.cpp:89)
Last command: minimize 1e-25 1e-25 500000 1000000
ERROR: Per-atom energy was not tallied on needed timestep (../compute_pe_atom.cpp:89)
Last command: minimize 1e-25 1e-25 500000 1000000
ERROR: Per-atom energy was not tallied on needed timestep (../compute_pe_atom.cpp:89)
Last command: minimize 1e-25 1e-25 500000 1000000
ERROR: Per-atom energy was not tallied on needed timestep (../compute_pe_atom.cpp:89)
Last command: minimize 1e-25 1e-25 500000 1000000
ERROR: Per-atom energy was not tallied on needed timestep (../compute_pe_atom.cpp:89)
Last command: minimize 1e-25 1e-25 500000 1000000
ERROR: Per-atom energy was not tallied on needed timestep (../compute_pe_atom.cpp:89)
Last command: minimize 1e-25 1e-25 500000 1000000
ERROR: Per-atom energy was not tallied on needed timestep (../compute_pe_atom.cpp:89)
Last command: minimize 1e-25 1e-25 500000 1000000
ERROR: Per-atom energy was not tallied on needed timestep (../compute_pe_atom.cpp:89)
Last command: minimize 1e-25 1e-25 500000 1000000
ERROR: Per-atom energy was not tallied on needed timestep (../compute_pe_atom.cpp:89)
Last command: minimize 1e-25 1e-25 500000 1000000
ERROR: Per-atom energy was not tallied on needed timestep (../compute_pe_atom.cpp:89)
Last command: minimize 1e-25 1e-25 500000 1000000
ERROR: Per-atom energy was not tallied on needed timestep (../compute_pe_atom.cpp:89)
Last command: minimize 1e-25 1e-25 500000 1000000
ERROR: Per-atom energy was not tallied on needed timestep (../compute_pe_atom.cpp:89)
Last command: minimize 1e-25 1e-25 500000 1000000
ERROR: Per-atom energy was not tallied on needed timestep (../compute_pe_atom.cpp:89)
Last command: minimize 1e-25 1e-25 500000 1000000
ERROR: Per-atom energy was not tallied on needed timestep (../compute_pe_atom.cpp:89)
Last command: minimize 1e-25 1e-25 500000 1000000
ERROR: Per-atom energy was not tallied on needed timestep (../compute_pe_atom.cpp:89)
Last command: minimize 1e-25 1e-25 500000 1000000
ERROR: Per-atom energy was not tallied on needed timestep (../compute_pe_atom.cpp:89)
Last command: minimize 1e-25 1e-25 500000 1000000
ERROR: Per-atom energy was not tallied on needed timestep (../compute_pe_atom.cpp:89)
Last command: minimize 1e-25 1e-25 500000 1000000
ERROR: Per-atom energy was not tallied on needed timestep (../compute_pe_atom.cpp:89)
Last command: minimize 1e-25 1e-25 500000 1000000
ERROR: Per-atom energy was not tallied on needed timestep (../compute_pe_atom.cpp:89)
Last command: minimize 1e-25 1e-25 500000 1000000
ERROR: Per-atom energy was not tallied on needed timestep (../compute_pe_atom.cpp:89)
Last command: minimize 1e-25 1e-25 500000 1000000
ERROR: Per-atom energy was not tallied on needed timestep (../compute_pe_atom.cpp:89)
Last command: minimize 1e-25 1e-25 500000 1000000
ERROR: Per-atom energy was not tallied on needed timestep (../compute_pe_atom.cpp:89)
Last command: minimize 1e-25 1e-25 500000 1000000
ERROR: Per-atom energy was not tallied on needed timestep (../compute_pe_atom.cpp:89)
Last command: minimize 1e-25 1e-25 500000 1000000
ERROR: Per-atom energy was not tallied on needed timestep (../compute_pe_atom.cpp:89)
Last command: minimize 1e-25 1e-25 500000 1000000
ERROR: Per-atom energy was not tallied on needed timestep (../compute_pe_atom.cpp:89)
Last command: minimize 1e-25 1e-25 500000 1000000
ERROR: Per-atom energy was not tallied on needed timestep (../compute_pe_atom.cpp:89)
Last command: minimize 1e-25 1e-25 500000 1000000
ERROR: Per-atom energy was not tallied on needed timestep (../compute_pe_atom.cpp:89)
[...]
Last command: minimize 1e-25 1e-25 500000 1000000
ERROR: Per-atom energy was not tallied on needed timestep (../compute_pe_atom.cpp:89)
Last command: minimize 1e-25 1e-25 500000 1000000
ERROR: Per-atom energy was not tallied on needed timestep (../compute_pe_atom.cpp:89)
Last command: minimize 1e-25 1e-25 500000 1000000
ERROR: Per-atom energy was not tallied on needed timestep (../compute_pe_atom.cpp:89)
Last command: minimize 1e-25 1e-25 500000 1000000
ERROR: Per-atom energy was not tallied on needed timestep (../compute_pe_atom.cpp:89)
Last command: minimize 1e-25 1e-25 500000 1000000
ERROR: Per-atom energy was not tallied on needed timestep (../compute_pe_atom.cpp:89)
Last command: minimize 1e-25 1e-25 500000 1000000
ERROR: Per-atom energy was not tallied on needed timestep (../compute_pe_atom.cpp:89)
Last command: minimize 1e-25 1e-25 500000 1000000
ERROR: Per-atom energy was not tallied on needed timestep (../compute_pe_atom.cpp:89)
Last command: minimize 1e-25 1e-25 500000 1000000
ERROR: Per-atom energy was not tallied on needed timestep (../compute_pe_atom.cpp:89)
Last command: minimize 1e-25 1e-25 500000 1000000
ERROR: Per-atom energy was not tallied on needed timestep (../compute_pe_atom.cpp:89)
Last command: minimize 1e-25 1e-25 500000 1000000
ERROR: Per-atom energy was not tallied on needed timestep (../compute_pe_atom.cpp:89)
Last command: minimize 1e-25 1e-25 500000 1000000
ERROR: Per-atom energy was not tallied on needed timestep (../compute_pe_atom.cpp:89)
Last command: minimize 1e-25 1e-25 500000 1000000
ERROR: Per-atom energy was not tallied on needed timestep (../compute_pe_atom.cpp:89)
Last command: minimize 1e-25 1e-25 500000 1000000
ERROR: Per-atom energy was not tallied on needed timestep (../compute_pe_atom.cpp:89)
Last command: minimize 1e-25 1e-25 500000 1000000
ERROR: Per-atom energy was not tallied on needed timestep (../compute_pe_atom.cpp:89)
Last command: minimize 1e-25 1e-25 500000 1000000
ERROR: Per-atom energy was not tallied on needed timestep (../compute_pe_atom.cpp:89)
Last command: minimize 1e-25 1e-25 500000 1000000
ERROR: Per-atom energy was not tallied on needed timestep (../compute_pe_atom.cpp:89)
Last command: minimize 1e-25 1e-25 500000 1000000
ERROR: Per-atom energy was not tallied on needed timestep (../compute_pe_atom.cpp:89)
Last command: minimize 1e-25 1e-25 500000 1000000
ERROR: Per-atom energy was not tallied on needed timestep (../compute_pe_atom.cpp:89)
Last command: minimize 1e-25 1e-25 500000 1000000
ERROR: Per-atom energy was not tallied on needed timestep (../compute_pe_atom.cpp:89)
Last command: minimize 1e-25 1e-25 500000 1000000
ERROR: Per-atom energy was not tallied on needed timestep (../compute_pe_atom.cpp:89)
Last command: minimize 1e-25 1e-25 500000 1000000
ERROR: Per-atom energy was not tallied on needed timestep (../compute_pe_atom.cpp:89)
Last command: minimize 1e-25 1e-25 500000 1000000
ERROR: Per-atom energy was not tallied on needed timestep (../compute_pe_atom.cpp:89)
Last command: minimize 1e-25 1e-25 500000 1000000
ERROR: Per-atom energy was not tallied on needed timestep (../compute_pe_atom.cpp:89)
Last command: minimize 1e-25 1e-25 500000 1000000
ERROR: Per-atom energy was not tallied on needed timestep (../compute_pe_atom.cpp:89)
Last command: minimize 1e-25 1e-25 500000 1000000
ERROR: Per-atom energy was not tallied on needed timestep (../compute_pe_atom.cpp:89)
Last command: minimize 1e-25 1e-25 500000 1000000
     840   -1731.0497       22.979    47.112999        29.92    23558.633    22028.212      23486.7    25160.988   -1731.0497 
ERROR: Per-atom energy was not tallied on needed timestep (../compute_pe_atom.cpp:89)
Last command: minimize 1e-25 1e-25 500000 1000000
ERROR: Per-atom energy was not tallied on needed timestep (../compute_pe_atom.cpp:89)
Last command: minimize 1e-25 1e-25 500000 1000000
ERROR: Per-atom energy was not tallied on needed timestep (../compute_pe_atom.cpp:89)
Last command: minimize 1e-25 1e-25 500000 1000000
ERROR: Per-atom energy was not tallied on needed timestep (../compute_pe_atom.cpp:89)
Last command: minimize 1e-25 1e-25 500000 1000000
ERROR: Per-atom energy was not tallied on needed timestep (../compute_pe_atom.cpp:89)
Last command: minimize 1e-25 1e-25 500000 1000000
ERROR: Per-atom energy was not tallied on needed timestep (../compute_pe_atom.cpp:89)
Last command: minimize 1e-25 1e-25 500000 1000000
ERROR: Per-atom energy was not tallied on needed timestep (../compute_pe_atom.cpp:89)
Last command: minimize 1e-25 1e-25 500000 1000000
ERROR: Per-atom energy was not tallied on needed timestep (../compute_pe_atom.cpp:89)
Last command: minimize 1e-25 1e-25 500000 1000000
ERROR: Per-atom energy was not tallied on needed timestep (../compute_pe_atom.cpp:89)
Last command: minimize 1e-25 1e-25 500000 1000000
ERROR: Per-atom energy was not tallied on needed timestep (../compute_pe_atom.cpp:89)
Last command: minimize 1e-25 1e-25 500000 1000000
ERROR: Per-atom energy was not tallied on needed timestep (../compute_pe_atom.cpp:89)
Last command: minimize 1e-25 1e-25 500000 1000000
ERROR: Per-atom energy was not tallied on needed timestep (../compute_pe_atom.cpp:89)
Last command: minimize 1e-25 1e-25 500000 1000000
ERROR: Per-atom energy was not tallied on needed timestep (../compute_pe_atom.cpp:89)
Last command: minimize 1e-25 1e-25 500000 1000000
ERROR: Per-atom energy was not tallied on needed timestep (../compute_pe_atom.cpp:89)
Last command: minimize 1e-25 1e-25 500000 1000000
ERROR: Per-atom energy was not tallied on needed timestep (../compute_pe_atom.cpp:89)
Last command: minimize 1e-25 1e-25 500000 1000000
ERROR: Per-atom energy was not tallied on needed timestep (../compute_pe_atom.cpp:89)
Last command: minimize 1e-25 1e-25 500000 1000000
ERROR: Per-atom energy was not tallied on needed timestep (../compute_pe_atom.cpp:89)
Last command: minimize 1e-25 1e-25 500000 1000000
ERROR: Per-atom energy was not tallied on needed timestep (../compute_pe_atom.cpp:89)
Last command: minimize 1e-25 1e-25 500000 1000000
ERROR: Per-atom energy was not tallied on needed timestep (../compute_pe_atom.cpp:89)
Last command: minimize 1e-25 1e-25 500000 1000000
ERROR: Per-atom energy was not tallied on needed timestep (../compute_pe_atom.cpp:89)
Last command: minimize 1e-25 1e-25 500000 1000000
ERROR: Per-atom energy was not tallied on needed timestep (../compute_pe_atom.cpp:89)
Last command: minimize 1e-25 1e-25 500000 1000000
ERROR: Per-atom energy was not tallied on needed timestep (../compute_pe_atom.cpp:89)
Last command: minimize 1e-25 1e-25 500000 1000000
ERROR: Per-atom energy was not tallied on needed timestep (../compute_pe_atom.cpp:89)
Last command: minimize 1e-25 1e-25 500000 1000000
ERROR: Per-atom energy was not tallied on needed timestep (../compute_pe_atom.cpp:89)
Last command: minimize 1e-25 1e-25 500000 1000000
ERROR: Per-atom energy was not tallied on needed timestep (../compute_pe_atom.cpp:89)
Last command: minimize 1e-25 1e-25 500000 1000000
ERROR: Per-atom energy was not tallied on needed timestep (../compute_pe_atom.cpp:89)
Last command: minimize 1e-25 1e-25 500000 1000000
ERROR: Per-atom energy was not tallied on needed timestep (../compute_pe_atom.cpp:89)
Last command: minimize 1e-25 1e-25 500000 1000000
ERROR: Per-atom energy was not tallied on needed timestep (../compute_pe_atom.cpp:89)
Last command: minimize 1e-25 1e-25 500000 1000000
ERROR: Per-atom energy was not tallied on needed timestep (../compute_pe_atom.cpp:89)
Last command: minimize 1e-25 1e-25 500000 1000000
ERROR: Per-atom energy was not tallied on needed timestep (../compute_pe_atom.cpp:89)
Last command: minimize 1e-25 1e-25 500000 1000000
ERROR: Per-atom energy was not tallied on needed timestep (../compute_pe_atom.cpp:89)
Last command: minimize 1e-25 1e-25 500000 1000000
ERROR: Per-atom energy was not tallied on needed timestep (../compute_pe_atom.cpp:89)
Last command: minimize 1e-25 1e-25 500000 1000000
ERROR: Per-atom energy was not tallied on needed timestep (../compute_pe_atom.cpp:89)
Last command: minimize 1e-25 1e-25 500000 1000000
ERROR: Per-atom energy was not tallied on needed timestep (../compute_pe_atom.cpp:89)
Last command: minimize 1e-25 1e-25 500000 1000000
ERROR: Per-atom energy was not tallied on needed timestep (../compute_pe_atom.cpp:89)
Last command: minimize 1e-25 1e-25 500000 1000000
ERROR: Per-atom energy was not tallied on needed timestep (../compute_pe_atom.cpp:89)
Last command: minimize 1e-25 1e-25 500000 1000000
ERROR: Per-atom energy was not tallied on needed timestep (../compute_pe_atom.cpp:89)
Last command: minimize 1e-25 1e-25 500000 1000000
ERROR: Per-atom energy was not tallied on needed timestep (../compute_pe_atom.cpp:89)
Last command: minimize 1e-25 1e-25 500000 1000000
ERROR: Per-atom energy was not tallied on needed timestep (../compute_pe_atom.cpp:89)
Last command: minimize 1e-25 1e-25 500000 1000000
ERROR: Per-atom energy was not tallied on needed timestep (../compute_pe_atom.cpp:89)
Last command: minimize 1e-25 1e-25 500000 1000000
ERROR: Per-atom energy was not tallied on needed timestep (../compute_pe_atom.cpp:89)
Last command: minimize 1e-25 1e-25 500000 1000000
ERROR: Per-atom energy was not tallied on needed timestep (../compute_pe_atom.cpp:89)
Last command: minimize 1e-25 1e-25 500000 1000000
ERROR: Per-atom energy was not tallied on needed timestep (../compute_pe_atom.cpp:89)
Last command: minimize 1e-25 1e-25 500000 1000000
ERROR: Per-atom energy was not tallied on needed timestep (../compute_pe_atom.cpp:89)
Last command: minimize 1e-25 1e-25 500000 1000000
ERROR: Per-atom energy was not tallied on needed timestep (../compute_pe_atom.cpp:89)
Last command: minimize 1e-25 1e-25 500000 1000000
ERROR: Per-atom energy was not tallied on needed timestep (../compute_pe_atom.cpp:89)
Last command: minimize 1e-25 1e-25 500000 1000000
ERROR: Per-atom energy was not tallied on needed timestep (../compute_pe_atom.cpp:89)
Last command: minimize 1e-25 1e-25 500000 1000000
ERROR: Per-atom energy was not tallied on needed timestep (../compute_pe_atom.cpp:89)
Last command: minimize 1e-25 1e-25 500000 1000000
ERROR: Per-atom energy was not tallied on needed timestep (../compute_pe_atom.cpp:89)
Last command: minimize 1e-25 1e-25 500000 1000000
ERROR: Per-atom energy was not tallied on needed timestep (../compute_pe_atom.cpp:89)
Last command: minimize 1e-25 1e-25 500000 1000000
ERROR: Per-atom energy was not tallied on needed timestep (../compute_pe_atom.cpp:89)
Last command: minimize 1e-25 1e-25 500000 1000000
ERROR: Per-atom energy was not tallied on needed timestep (../compute_pe_atom.cpp:89)
Last command: minimize 1e-25 1e-25 500000 1000000
ERROR: Per-atom energy was not tallied on needed timestep (../compute_pe_atom.cpp:89)
Last command: minimize 1e-25 1e-25 500000 1000000
ERROR: Per-atom energy was not tallied on needed timestep (../compute_pe_atom.cpp:89)
Last command: minimize 1e-25 1e-25 500000 1000000
ERROR: Per-atom energy was not tallied on needed timestep (../compute_pe_atom.cpp:89)
Last command: minimize 1e-25 1e-25 500000 1000000
ERROR: Per-atom energy was not tallied on needed timestep (../compute_pe_atom.cpp:89)
Last command: minimize 1e-25 1e-25 500000 1000000
ERROR: Per-atom energy was not tallied on needed timestep (../compute_pe_atom.cpp:89)
Last command: minimize 1e-25 1e-25 500000 1000000
ERROR: Per-atom energy was not tallied on needed timestep (../compute_pe_atom.cpp:89)
Last command: minimize 1e-25 1e-25 500000 1000000
ERROR: Per-atom energy was not tallied on needed timestep (../compute_pe_atom.cpp:89)
Last command: minimize 1e-25 1e-25 500000 1000000
ERROR: Per-atom energy was not tallied on needed timestep (../compute_pe_atom.cpp:89)
Last command: minimize 1e-25 1e-25 500000 1000000
ERROR: Per-atom energy was not tallied on needed timestep (../compute_pe_atom.cpp:89)
Last command: minimize 1e-25 1e-25 500000 1000000
ERROR: Per-atom energy was not tallied on needed timestep (../compute_pe_atom.cpp:89)
Last command: minimize 1e-25 1e-25 500000 1000000
ERROR: Per-atom energy was not tallied on needed timestep (../compute_pe_atom.cpp:89)
Last command: minimize 1e-25 1e-25 500000 1000000
ERROR: Per-atom energy was not tallied on needed timestep (../compute_pe_atom.cpp:89)
Last command: minimize 1e-25 1e-25 500000 1000000
ERROR: Per-atom energy was not tallied on needed timestep (../compute_pe_atom.cpp:89)
Last command: minimize 1e-25 1e-25 500000 1000000
ERROR: Per-atom energy was not tallied on needed timestep (../compute_pe_atom.cpp:89)
Last command: minimize 1e-25 1e-25 500000 1000000
ERROR: Per-atom energy was not tallied on needed timestep (../compute_pe_atom.cpp:89)
Last command: minimize 1e-25 1e-25 500000 1000000
ERROR: Per-atom energy was not tallied on needed timestep (../compute_pe_atom.cpp:89)
Last command: minimize 1e-25 1e-25 500000 1000000
ERROR: Per-atom energy was not tallied on needed timestep (../compute_pe_atom.cpp:89)
Last command: minimize 1e-25 1e-25 500000 1000000
ERROR: Per-atom energy was not tallied on needed timestep (../compute_pe_atom.cpp:89)
Last command: minimize 1e-25 1e-25 500000 1000000
ERROR: Per-atom energy was not tallied on needed timestep (../compute_pe_atom.cpp:89)
Last command: minimize 1e-25 1e-25 500000 1000000
ERROR: Per-atom energy was not tallied on needed timestep (../compute_pe_atom.cpp:89)
Last command: minimize 1e-25 1e-25 500000 1000000
ERROR: Per-atom energy was not tallied on needed timestep (../compute_pe_atom.cpp:89)
Last command: minimize 1e-25 1e-25 500000 1000000
ERROR: Per-atom energy was not tallied on needed timestep (../compute_pe_atom.cpp:89)
Last command: minimize 1e-25 1e-25 500000 1000000
ERROR: Per-atom energy was not tallied on needed timestep (../compute_pe_atom.cpp:89)
Last command: minimize 1e-25 1e-25 500000 1000000
ERROR: Per-atom energy was not tallied on needed timestep (../compute_pe_atom.cpp:89)
Last command: minimize 1e-25 1e-25 500000 1000000
ERROR: Per-atom energy was not tallied on needed timestep (../compute_pe_atom.cpp:89)
Last command: minimize 1e-25 1e-25 500000 1000000
ERROR: Per-atom energy was not tallied on needed timestep (../compute_pe_atom.cpp:89)
Last command: minimize 1e-25 1e-25 500000 1000000
ERROR: Per-atom energy was not tallied on needed timestep (../compute_pe_atom.cpp:89)
Last command: minimize 1e-25 1e-25 500000 1000000
ERROR: Per-atom energy was not tallied on needed timestep (../compute_pe_atom.cpp:89)
Last command: minimize 1e-25 1e-25 500000 1000000
ERROR: Per-atom energy was not tallied on needed timestep (../compute_pe_atom.cpp:89)
Last command: minimize 1e-25 1e-25 500000 1000000
ERROR: Per-atom energy was not tallied on needed timestep (../compute_pe_atom.cpp:89)
Last command: minimize 1e-25 1e-25 500000 1000000
ERROR: Per-atom energy was not tallied on needed timestep (../compute_pe_atom.cpp:89)
Last command: minimize 1e-25 1e-25 500000 1000000
ERROR: Per-atom energy was not tallied on needed timestep (../compute_pe_atom.cpp:89)
Last command: minimize 1e-25 1e-25 500000 1000000
ERROR: Per-atom energy was not tallied on needed timestep (../compute_pe_atom.cpp:89)
Last command: minimize 1e-25 1e-25 500000 1000000
ERROR: Per-atom energy was not tallied on needed timestep (../compute_pe_atom.cpp:89)
Last command: minimize 1e-25 1e-25 500000 1000000
ERROR: Per-atom energy was not tallied on needed timestep (../compute_pe_atom.cpp:89)
Last command: minimize 1e-25 1e-25 500000 1000000
ERROR: Per-atom energy was not tallied on needed timestep (../compute_pe_atom.cpp:89)
Last command: minimize 1e-25 1e-25 500000 1000000
ERROR: Per-atom energy was not tallied on needed timestep (../compute_pe_atom.cpp:89)
Last command: minimize 1e-25 1e-25 500000 1000000
ERROR: Per-atom energy was not tallied on needed timestep (../compute_pe_atom.cpp:89)
Last command: minimize 1e-25 1e-25 500000 1000000
ERROR: Per-atom energy was not tallied on needed timestep (../compute_pe_atom.cpp:89)
Last command: minimize 1e-25 1e-25 500000 1000000
ERROR: Per-atom energy was not tallied on needed timestep (../compute_pe_atom.cpp:89)
Last command: minimize 1e-25 1e-25 500000 1000000
ERROR: Per-atom energy was not tallied on needed timestep (../compute_pe_atom.cpp:89)
Last command: minimize 1e-25 1e-25 500000 1000000
ERROR: Per-atom energy was not tallied on needed timestep (../compute_pe_atom.cpp:89)
Last command: minimize 1e-25 1e-25 500000 1000000
ERROR: Per-atom energy was not tallied on needed timestep (../compute_pe_atom.cpp:89)
Last command: minimize 1e-25 1e-25 500000 1000000
ERROR: Per-atom energy was not tallied on needed timestep (../compute_pe_atom.cpp:89)
Last command: minimize 1e-25 1e-25 500000 1000000
ERROR: Per-atom energy was not tallied on needed timestep (../compute_pe_atom.cpp:89)
Last command: minimize 1e-25 1e-25 500000 1000000
ERROR: Per-atom energy was not tallied on needed timestep (../compute_pe_atom.cpp:89)
Last command: minimize 1e-25 1e-25 500000 1000000
ERROR: Per-atom energy was not tallied on needed timestep (../compute_pe_atom.cpp:89)
Last command: minimize 1e-25 1e-25 500000 1000000
ERROR: Per-atom energy was not tallied on needed timestep (../compute_pe_atom.cpp:89)
Last command: minimize 1e-25 1e-25 500000 1000000
ERROR: Per-atom energy was not tallied on needed timestep (../compute_pe_atom.cpp:89)
Last command: minimize 1e-25 1e-25 500000 1000000
ERROR: Per-atom energy was not tallied on needed timestep (../compute_pe_atom.cpp:89)
Last command: minimize 1e-25 1e-25 500000 1000000
ERROR: Per-atom energy was not tallied on needed timestep (../compute_pe_atom.cpp:89)
Last command: minimize 1e-25 1e-25 500000 1000000
ERROR: Per-atom energy was not tallied on needed timestep (../compute_pe_atom.cpp:89)
Last command: minimize 1e-25 1e-25 500000 1000000
ERROR: Per-atom energy was not tallied on needed timestep (../compute_pe_atom.cpp:89)
Last command: minimize 1e-25 1e-25 500000 1000000
ERROR: Per-atom energy was not tallied on needed timestep (../compute_pe_atom.cpp:89)
Last command: minimize 1e-25 1e-25 500000 1000000
ERROR: Per-atom energy was not tallied on needed timestep (../compute_pe_atom.cpp:89)
Last command: minimize 1e-25 1e-25 500000 1000000
ERROR: Per-atom energy was not tallied on needed timestep (../compute_pe_atom.cpp:89)
Last command: minimize 1e-25 1e-25 500000 1000000
     860   -1731.9067       22.979    47.112999        29.92    23560.865    22016.308     23494.59    25171.698   -1731.9067 
Loop time of 14.872 on 1 procs for 860 steps with 1200 atoms

112.9% CPU use with 1 MPI tasks x 1 OpenMP threads

Minimization stats:
  Stopping criterion = linesearch alpha is zero
  Energy initial, next-to-last, final = 
         11735.6862366     -1731.90673197     -1731.90673197
  Force two-norm initial, final = 4244.34 1.92496
  Force max component initial, final = 267.857 0.456695
  Final line search alpha, max atom move = 2.07835e-09 9.4917e-10
  Iterations, force evaluations = 860 1752

MPI task timing breakdown:
Section |  min time  |  avg time  |  max time  |%varavg| %total
---------------------------------------------------------------
Pair    | 3.7504     | 3.7504     | 3.7504     |   0.0 | 25.22
Bond    | 0.17857    | 0.17857    | 0.17857    |   0.0 |  1.20
Neigh   | 0          | 0          | 0          |   0.0 |  0.00
Comm    | 0.0011609  | 0.0011609  | 0.0011609  |   0.0 |  0.01
Output  | 0.93233    | 0.93233    | 0.93233    |   0.0 |  6.27
Modify  | 9.9675     | 9.9675     | 9.9675     |   0.0 | 67.02
Other   |            | 0.042      |            |       |  0.28

Nlocal:    1200 ave 1200 max 1200 min
Histogram: 1 0 0 0 0 0 0 0 0 0
Nghost:    0 ave 0 max 0 min
Histogram: 1 0 0 0 0 0 0 0 0 0
Neighs:    716280 ave 716280 max 716280 min
Histogram: 1 0 0 0 0 0 0 0 0 0
FullNghs:  1.43256e+06 ave 1.43256e+06 max 1.43256e+06 min
Histogram: 1 0 0 0 0 0 0 0 0 0

Total # of neighbors = 1432560
Ave neighs/atom = 1193.8
Ave special neighs/atom = 5.2
Neighbor list builds = 0
Dangerous builds = 0


#print "All done"
Total wall time: 0:00:26
