LAMMPS data file via write_data, version 11 Aug 2017, timestep = 3000

1200 atoms
1 atom types
1120 bonds
1 bond types
1040 angles
1 angle types
960 dihedrals
1 dihedral types

-2.0188083008469714e+01 2.0188083008469714e+01 xlo xhi
-4.0376166016939429e+01 4.0376166016939429e+01 ylo yhi
-2.5235103760587119e+01 2.5235103760587119e+01 zlo zhi

Masses

1 14.02

Pair Coeffs # lj/cut

1 0.112 4.01

Bond Coeffs # harmonic

1 350 1.53

Angle Coeffs # harmonic

1 60 109.5

Atoms # molecular

253 1 1 3.5348032585125679e+00 -1.1643537620374858e+01 -1.4066333371927040e+01 0 0 0
245 1 1 1.2178761255423499e+01 -1.3470274555780399e+01 -1.4405236018222029e+01 0 0 0
242 1 1 1.4036789670444588e+01 -1.5806382673102743e+01 -1.4236303290549605e+01 0 0 0
243 1 1 1.4395821665150169e+01 -1.4497734060880653e+01 -1.4938821717813184e+01 0 0 0
244 1 1 1.3687218946859776e+01 -1.3343104765161268e+01 -1.4212049296965018e+01 0 0 0
241 1 1 1.4671549491308266e+01 -1.6977472702278025e+01 -1.4992727189424972e+01 0 0 0
255 1 1 1.4090226110119914e+00 -1.0459309776210759e+01 -1.4649350386631848e+01 0 0 0
254 1 1 2.8980892655392267e+00 -1.0296078880857973e+01 -1.4375113060628133e+01 0 0 0
482 1 1 2.7563556738978860e+00 4.2213502064282693e-01 -1.4603533706027745e+01 0 0 0
485 1 1 -9.9959128619575921e-01 1.0355656046598156e+00 -1.4114070609420411e+01 0 0 0
483 1 1 1.3049687270281858e+00 8.3258140373330747e-01 -1.4877307807435106e+01 0 0 0
481 1 1 3.6519835859489440e+00 9.5234729741205371e-01 -1.5721223759147577e+01 0 0 0
729 1 1 1.0058262472904811e+01 5.1265482160912583e+00 -1.4344546246254637e+01 0 0 0
495 1 1 -1.0643591781203520e+01 6.3151750117909060e+00 -1.4790222690707235e+01 0 0 0
750 1 1 4.0910721999052555e+00 7.8937558305932214e+00 -1.4355241594044371e+01 0 0 0
728 1 1 1.0393995149428640e+01 6.6131269229177292e+00 -1.4567783699184430e+01 0 0 0
727 1 1 9.2987292865268465e+00 7.5364537036870587e+00 -1.4052950641217883e+01 0 0 0
15 1 1 -1.5458751332524230e+00 -2.0085180701052444e+01 -9.1688635758044725e+00 0 0 0
13 1 1 8.6242180004460778e-01 -2.0557446072969991e+01 -8.8551940357377177e+00 0 0 0
125 1 1 8.8897301790204430e+00 -1.7437839389383985e+01 -9.9074609178235917e+00 0 0 0
165 1 1 -6.9405652883078233e+00 -1.4917033218592636e+01 -8.4876267985612799e+00 0 0 0
135 1 1 -3.2235962228576405e+00 -1.6360220857304096e+01 -1.0374002492897356e+01 0 0 0
134 1 1 -1.9373278602680450e+00 -1.5608351726160677e+01 -1.0707162118267286e+01 0 0 0
133 1 1 -7.8381194001890009e-01 -1.6246896363601948e+01 -9.9569166003674781e+00 0 0 0
132 1 1 5.1590494956191435e-01 -1.5480396938662146e+01 -1.0245080418450616e+01 0 0 0
131 1 1 1.6790541260769167e+00 -1.6231721432815167e+01 -9.6051208761521423e+00 0 0 0
127 1 1 6.5369029668291638e+00 -1.6791142037374048e+01 -9.4105642803877121e+00 0 0 0
126 1 1 7.8725395953533841e+00 -1.6287040273062271e+01 -9.9480551597516271e+00 0 0 0
128 1 1 5.4645857259826727e+00 -1.5764343570026952e+01 -9.7565529009905561e+00 0 0 0
130 1 1 2.9841861267143983e+00 -1.5505697773176749e+01 -9.8898767160849310e+00 0 0 0
251 1 1 5.7120291991661993e+00 -1.2763466812481564e+01 -1.3535467273726884e+01 0 0 0
260 1 1 5.2294265810296707e+00 -1.2065356783503756e+01 -8.8888376720939561e+00 0 0 0
249 1 1 7.9770953428036719e+00 -1.3816308286125466e+01 -1.3289416908966972e+01 0 0 0
250 1 1 7.1926264720280777e+00 -1.2509623143048305e+01 -1.3214292067753430e+01 0 0 0
261 1 1 3.9731278610833094e+00 -1.1854247483857591e+01 -9.7532389280469491e+00 0 0 0
258 1 1 7.7141114168356602e+00 -1.1993926661171564e+01 -8.8665529146155286e+00 0 0 0
129 1 1 4.1198439892822982e+00 -1.6351352955940108e+01 -9.3024263281789565e+00 0 0 0
247 1 1 9.9601035939117395e+00 -1.2454240486994397e+01 -1.3964551697062237e+01 0 0 0
246 1 1 1.1467737459552659e+01 -1.2248054634198301e+01 -1.3816920255026693e+01 0 0 0
124 1 1 1.0205184823653941e+01 -1.6992638128485329e+01 -1.0565925762173201e+01 0 0 0
123 1 1 1.0874957117222067e+01 -1.5892800192347828e+01 -9.7667472270649629e+00 0 0 0
122 1 1 1.2186241725233590e+01 -1.5506184800206171e+01 -1.0455341572841869e+01 0 0 0
248 1 1 9.4536027718845475e+00 -1.3512385573339845e+01 -1.2971342515084009e+01 0 0 0
121 1 1 1.2951656447793038e+01 -1.4476132342516578e+01 -9.6192462961237695e+00 0 0 0
256 1 1 1.0241701903392926e+01 -1.1972577216161792e+01 -9.0209176552474517e+00 0 0 0
270 1 1 -3.7085633391444617e+00 -7.4861058251524355e+00 -1.2295749343139644e+01 0 0 0
300 1 1 -6.1341168979543550e+00 -6.8715139403551788e+00 -9.2718530587938393e+00 0 0 0
269 1 1 -3.6509959253819844e+00 -9.0162312429926565e+00 -1.2346622128098392e+01 0 0 0
298 1 1 -3.8875001196039882e+00 -7.6349647616795409e+00 -8.4145564413134615e+00 0 0 0
263 1 1 2.4041858971521251e+00 -1.0189838938370574e+01 -1.0741984604963058e+01 0 0 0
268 1 1 -2.5842097248232996e+00 -9.5147829457105182e+00 -1.1365773957284615e+01 0 0 0
267 1 1 -2.4021915412692536e+00 -1.1026863859730668e+01 -1.1464349699506673e+01 0 0 0
266 1 1 -1.2401715709696539e+00 -1.1425332135048468e+01 -1.0546300382402940e+01 0 0 0
264 1 1 1.2219881620344530e+00 -1.0977785653524510e+01 -1.0149530169074847e+01 0 0 0
265 1 1 1.7676902154867946e-02 -1.0710820152047198e+01 -1.1059391846918476e+01 0 0 0
252 1 1 4.9835494005163987e+00 -1.1420628672576466e+01 -1.3629352266732194e+01 0 0 0
262 1 1 3.6560749847630127e+00 -1.0364186166333155e+01 -9.8975555053763316e+00 0 0 0
259 1 1 6.4567682887168658e+00 -1.1512011791317565e+01 -9.5995251053700059e+00 0 0 0
363 1 1 7.8905169140247757e+00 -6.0948130734346435e+00 -1.2448229617873258e+01 0 0 0
278 1 1 6.7501246260647356e+00 -6.8049773548551613e+00 -9.0087673931956935e+00 0 0 0
280 1 1 4.3944917130181125e+00 -5.9853306178647401e+00 -8.4825922514313277e+00 0 0 0
257 1 1 8.9309592533102382e+00 -1.1480577747631934e+01 -9.6415658750870072e+00 0 0 0
361 1 1 1.0347461863980172e+01 -6.4582089661862767e+00 -1.2161463460542796e+01 0 0 0
276 1 1 9.0759186303875374e+00 -7.8716853844732455e+00 -8.7459744465737934e+00 0 0 0
435 1 1 -1.1612121918772186e+01 -2.7575834297287543e+00 -9.8357783536881147e+00 0 0 0
375 1 1 -5.3487657538927795e+00 -2.6953007117893364e+00 -9.2294962767130784e+00 0 0 0
373 1 1 -3.5182015242321896e+00 -3.2955289782900650e+00 -1.0643514726940730e+01 0 0 0
374 1 1 -3.8496418048368533e+00 -2.8730556343626361e+00 -9.2207237143787992e+00 0 0 0
372 1 1 -2.0221514878166360e+00 -3.1290356839303399e+00 -1.0859940134846427e+01 0 0 0
371 1 1 -1.7659760800706508e+00 -3.4382377420822223e+00 -1.2329193338419270e+01 0 0 0
370 1 1 -3.2423970571970528e-01 -3.1311644298364598e+00 -1.2685754816412427e+01 0 0 0
369 1 1 6.4803541260169695e-01 -4.2044400790841010e+00 -1.2168346166043754e+01 0 0 0
368 1 1 2.0685431417275488e+00 -3.7656447226280747e+00 -1.2555298354282378e+01 0 0 0
283 1 1 1.4091827038064615e+00 -4.4533218030265260e+00 -8.4365802516739272e+00 0 0 0
403 1 1 2.2823497558825707e+00 -8.4454227116636105e-01 -8.4595739226558671e+00 0 0 0
404 1 1 1.8067114189341673e+00 -6.1670942186319877e-01 -9.8951728153846101e+00 0 0 0
405 1 1 3.5652113018389997e-01 -1.0750440989511389e-01 -9.9079332547469861e+00 0 0 0
367 1 1 3.0535884532456947e+00 -4.9128546444752956e+00 -1.2355048794086603e+01 0 0 0
365 1 1 5.4329990571161026e+00 -5.6192790253013953e+00 -1.2585003383996016e+01 0 0 0
366 1 1 4.4121469122761923e+00 -4.5387765778375737e+00 -1.2957868869973437e+01 0 0 0
390 1 1 7.3981480311127150e+00 -2.6372480572430348e+00 -1.0328970871158969e+01 0 0 0
364 1 1 6.8078509369053108e+00 -5.2783793486010993e+00 -1.3169875220104426e+01 0 0 0
389 1 1 8.4380097324948373e+00 -2.1504351007954980e+00 -9.3219107558976013e+00 0 0 0
402 1 1 3.7484156157105630e+00 -1.2924863565109348e+00 -8.4516034597275400e+00 0 0 0
362 1 1 9.2741386886659072e+00 -5.7513676319097442e+00 -1.3006160595300878e+01 0 0 0
388 1 1 9.3928405703051077e+00 -3.3053902186763295e+00 -9.0269482027540988e+00 0 0 0
493 1 1 -9.3027921254335944e+00 4.6208891847716629e+00 -1.3700883591254897e+01 0 0 0
570 1 1 -1.0847435101271284e+01 6.9859165775976351e-01 -1.1120811510616415e+01 0 0 0
569 1 1 -1.0178232365529233e+01 1.2575508526095973e+00 -9.8645486648081011e+00 0 0 0
568 1 1 -8.9221782963586680e+00 4.2162412388140069e-01 -9.6092581276002598e+00 0 0 0
491 1 1 -8.0471710842802242e+00 2.8045044331726103e+00 -1.2717192330451605e+01 0 0 0
492 1 1 -7.9721635099221277e+00 4.2977176307270710e+00 -1.3027068283470070e+01 0 0 0
489 1 1 -5.5658258207444309e+00 2.5079966594740171e+00 -1.2950545952807811e+01 0 0 0
490 1 1 -6.7807312103143147e+00 2.3099478829017102e+00 -1.2045702777114903e+01 0 0 0
488 1 1 -4.3616866709155069e+00 1.7601639430467415e+00 -1.2386563281122720e+01 0 0 0
487 1 1 -3.2666951484242830e+00 1.7438048593336575e+00 -1.3457486165349980e+01 0 0 0
549 1 1 -7.9758766308924383e+00 5.2925444998268460e+00 -9.3837753727157569e+00 0 0 0
548 1 1 -6.4498007705469096e+00 5.4301932010561558e+00 -9.3935416645277297e+00 0 0 0
547 1 1 -5.8704202505357106e+00 4.0743438659850284e+00 -9.0028491064714906e+00 0 0 0
546 1 1 -4.3657691929507898e+00 4.1335735208106001e+00 -8.7217701349581951e+00 0 0 0
486 1 1 -2.0462035844169542e+00 9.4183214525244807e-01 -1.2999395046780769e+01 0 0 0
484 1 1 3.6291571684357748e-01 4.5930397844411175e-01 -1.3728758568047061e+01 0 0 0
503 1 1 6.7031650637557050e-01 3.7125171348068733e+00 -1.1287406199206078e+01 0 0 0
502 1 1 1.9868202022450099e+00 3.6502823540814191e+00 -1.2044764025383943e+01 0 0 0
504 1 1 1.2486881688076323e-02 4.9970059471001420e+00 -1.1784433159091657e+01 0 0 0
505 1 1 -1.2519622870954201e+00 5.3148887558754154e+00 -1.0988125748893424e+01 0 0 0
500 1 1 4.2745601034434983e+00 2.6455204177554634e+00 -1.2087144248003799e+01 0 0 0
499 1 1 5.2008777908482173e+00 1.5966862724098618e+00 -1.1474567805241541e+01 0 0 0
501 1 1 2.9184972889659129e+00 2.6383581441883734e+00 -1.1389407657152431e+01 0 0 0
497 1 1 7.4550610526635737e+00 5.6360428930604201e-01 -1.1936004074803945e+01 0 0 0
496 1 1 8.1999566335431346e+00 1.9169064894369114e-01 -1.3214120677119611e+01 0 0 0
498 1 1 6.5136226489817091e+00 1.7290947162230026e+00 -1.2245765186376184e+01 0 0 0
628 1 1 3.4404677966380319e+00 4.7202482020539094e+00 -8.5079172673820729e+00 0 0 0
734 1 1 1.1544873256155558e+01 2.3371258609140710e+00 -9.5574989073705190e+00 0 0 0
732 1 1 1.1549475637589278e+01 2.4740916946341613e+00 -1.1975018920512191e+01 0 0 0
733 1 1 1.0818381746035222e+01 2.9920968228969329e+00 -1.0731568322698948e+01 0 0 0
731 1 1 1.0948158323207029e+01 3.0758064910367295e+00 -1.3250621558386582e+01 0 0 0
730 1 1 1.0716719270088262e+01 4.5859971691361849e+00 -1.3054327389136354e+01 0 0 0
494 1 1 -9.3750615931500061e+00 6.1122142526547520e+00 -1.3987146387921896e+01 0 0 0
551 1 1 -9.9870057925556104e+00 6.6930685171081095e+00 -1.0080587542068761e+01 0 0 0
552 1 1 -1.0230635899588615e+01 8.1642745849817686e+00 -1.0414464805814122e+01 0 0 0
553 1 1 -1.1678743534572900e+01 8.3375694283589041e+00 -1.0855347444836847e+01 0 0 0
555 1 1 -1.3429306551465311e+01 9.8812919299450641e+00 -1.1683904267985112e+01 0 0 0
554 1 1 -1.1983823625868004e+01 9.7947497015612939e+00 -1.1178764471199417e+01 0 0 0
973 1 1 -7.5345365730836722e+00 9.6926816728826992e+00 -1.2222696680875798e+01 0 0 0
975 1 1 -6.2215117035418768e+00 7.5764655910083789e+00 -1.2613781710064615e+01 0 0 0
974 1 1 -6.3424647128899316e+00 8.8481243068302007e+00 -1.1774734149810659e+01 0 0 0
972 1 1 -7.2089913864648860e+00 1.1117314477752636e+01 -1.1787445545755611e+01 0 0 0
550 1 1 -8.5411380013629277e+00 6.6876659825701381e+00 -9.6392104321714687e+00 0 0 0
844 1 1 -2.8927845645762176e+00 1.1037170284003238e+01 -8.4657616971132938e+00 0 0 0
506 1 1 -1.5755379799832525e+00 6.7803278006064360e+00 -1.1324604098386262e+01 0 0 0
508 1 1 -2.3559699798522367e+00 6.9301710470819486e+00 -9.0236954496974207e+00 0 0 0
507 1 1 -2.7047284511898191e+00 7.3119774082766682e+00 -1.0460242318369527e+01 0 0 0
749 1 1 3.5044617178345412e+00 7.1185730271090293e+00 -1.3177329522221108e+01 0 0 0
748 1 1 4.5209140785508275e+00 6.1173398126345973e+00 -1.2617253875564931e+01 0 0 0
747 1 1 5.6300899673857643e+00 6.8862647477622332e+00 -1.1903419437254795e+01 0 0 0
746 1 1 6.5637404082354323e+00 5.9644822313055741e+00 -1.1109862123504817e+01 0 0 0
745 1 1 7.7502318087013826e+00 6.8551093535326828e+00 -1.0734457516627142e+01 0 0 0
627 1 1 3.5065054820048047e+00 6.2452250843668295e+00 -8.5233638069282165e+00 0 0 0
726 1 1 9.8493804034356813e+00 8.9684443213176550e+00 -1.3935592865376661e+01 0 0 0
725 1 1 8.6955948640795064e+00 9.9399016192333676e+00 -1.3588838796214338e+01 0 0 0
724 1 1 9.2620704158592595e+00 1.1260199004470238e+01 -1.3050188687419524e+01 0 0 0
744 1 1 8.7845453548236492e+00 6.2585897772286998e+00 -9.7783313962739182e+00 0 0 0
743 1 1 9.7996869865324676e+00 7.3769053500103965e+00 -9.5625806328306968e+00 0 0 0
971 1 1 -6.0306833315216863e+00 1.1585059350118549e+01 -1.2626091383151079e+01 0 0 0
970 1 1 -5.1379707520065274e+00 1.2507508552051377e+01 -1.1795538739717683e+01 0 0 0
969 1 1 -6.0170169032331771e+00 1.3580853648416536e+01 -1.1166599908089886e+01 0 0 0
968 1 1 -5.2073434692760046e+00 1.4360872156557633e+01 -1.0144299402672068e+01 0 0 0
967 1 1 -6.1097579344867636e+00 1.5366094366251190e+01 -9.4506588172747961e+00 0 0 0
723 1 1 8.1205573115366505e+00 1.2037616507874006e+01 -1.2401791095161006e+01 0 0 0
722 1 1 8.6753576620118729e+00 1.3252674065994540e+01 -1.1647014256890019e+01 0 0 0
721 1 1 9.1547219590480111e+00 1.4288724313821845e+01 -1.2662046776408481e+01 0 0 0
1025 1 1 1.7742687638181923e+01 1.6581352906110311e+01 -9.7133033317157729e+00 0 0 0
1026 1 1 1.6887991238225528e+01 1.5313322720411868e+01 -9.7980567524593507e+00 0 0 0
1028 1 1 1.4577122289576177e+01 1.4393644360245261e+01 -9.3909921828761416e+00 0 0 0
1027 1 1 1.5406578672205750e+01 1.5673297153423945e+01 -9.5951919307468909e+00 0 0 0
961 1 1 -2.4579678909956968e+00 1.9192612578310481e+01 -8.9774847637032202e+00 0 0 0
4 1 1 9.3018760337000757e+00 -2.3966822832737464e+01 -4.8429110663301778e+00 0 0 0
3 1 1 1.0195992365027468e+01 -2.3200165966174154e+01 -3.8540995959670141e+00 0 0 0
2 1 1 1.1286720662922967e+01 -2.4151612503751590e+01 -3.3634148551350371e+00 0 0 0
63 1 1 1.2273174050222696e+01 -2.8547322235623241e+01 -3.2510514653926315e+00 0 0 0
65 1 1 1.0022439698769698e+01 -2.7514039066995821e+01 -3.2111212069774666e+00 0 0 0
150 1 1 -5.3425283583070193e+00 -2.2064491962041025e+01 -3.2715294273031361e+00 0 0 0
149 1 1 -4.5064856126014963e+00 -2.1046031286522648e+01 -4.0342131603752911e+00 0 0 0
148 1 1 -3.0365388297380456e+00 -2.1267683917925805e+01 -3.6790067355626519e+00 0 0 0
14 1 1 -4.7025759479376816e-01 -2.0364965507158406e+01 -8.1290812059335487e+00 0 0 0
12 1 1 1.9853267966381090e+00 -2.0767321365562978e+01 -7.8497269884392260e+00 0 0 0
11 1 1 1.7857189217651701e+00 -2.2083910070687121e+01 -7.0839054667494459e+00 0 0 0
143 1 1 2.5265725997959869e+00 -1.8591296826694641e+01 -4.9039080006280287e+00 0 0 0
147 1 1 -2.1516370121906903e+00 -2.0289771533201954e+01 -4.4423027589391459e+00 0 0 0
146 1 1 -7.2000692192314020e-01 -2.0373264022955421e+01 -3.8836709828462901e+00 0 0 0
145 1 1 1.9258511967537473e-01 -1.9406230781753923e+01 -4.6336035070699531e+00 0 0 0
144 1 1 1.6167853732361657e+00 -1.9483035836462570e+01 -4.0650146535945844e+00 0 0 0
8 1 1 5.4347643007633799e+00 -2.2979807884301884e+01 -6.1819062580857995e+00 0 0 0
6 1 1 7.3090027432074720e+00 -2.2405327120369197e+01 -4.6617446674417842e+00 0 0 0
5 1 1 8.3174787776620782e+00 -2.3050995162487595e+01 -5.6037951094019718e+00 0 0 0
9 1 1 4.2366503201737444e+00 -2.2504179344239521e+01 -7.0178041064822096e+00 0 0 0
10 1 1 2.9772278216052932e+00 -2.2376325177879782e+01 -6.1579601607921788e+00 0 0 0
7 1 1 6.1714244270633323e+00 -2.1823127350914937e+01 -5.5081767068092837e+00 0 0 0
142 1 1 3.9190959204179414e+00 -1.8654751395590356e+01 -4.2726100915153893e+00 0 0 0
139 1 1 7.3586424930642522e+00 -1.7575013716541775e+01 -5.5701141413637600e+00 0 0 0
141 1 1 4.9727284972872248e+00 -1.8059402088958176e+01 -5.1991784706811117e+00 0 0 0
140 1 1 6.3556937122490460e+00 -1.8085851567551913e+01 -4.5402253325455213e+00 0 0 0
138 1 1 8.8127909366268966e+00 -1.7464797176423829e+01 -5.1070079026536170e+00 0 0 0
76 1 1 1.2913046125691093e+01 -1.8830794925973247e+01 -4.0340487213830123e+00 0 0 0
77 1 1 1.1894849922301223e+01 -1.9859525351761217e+01 -3.5349887772476620e+00 0 0 0
195 1 1 -1.2403279450575580e+01 -1.4169851881774004e+01 -8.3289620127451052e+00 0 0 0
194 1 1 -1.1660503120882526e+01 -1.3419206302534871e+01 -7.2134742390678248e+00 0 0 0
193 1 1 -1.0489917795294161e+01 -1.4278006664273448e+01 -6.6979061111045546e+00 0 0 0
192 1 1 -9.7635239280945161e+00 -1.3547918346526973e+01 -5.5614953359172006e+00 0 0 0
163 1 1 -4.7383581806539361e+00 -1.4513233957768009e+01 -7.3993027245401635e+00 0 0 0
164 1 1 -5.9440938107293366e+00 -1.5456081204608235e+01 -7.4584531893714612e+00 0 0 0
162 1 1 -3.6491223823201437e+00 -1.5131563358479930e+01 -6.5186036016823898e+00 0 0 0
191 1 1 -8.6031170843357678e+00 -1.4403117616067203e+01 -5.0260731910921699e+00 0 0 0
190 1 1 -7.9040196159723486e+00 -1.3687315700674841e+01 -3.8663588205707242e+00 0 0 0
189 1 1 -6.6712619517964313e+00 -1.4466390454565431e+01 -3.4285503628058862e+00 0 0 0
161 1 1 -2.3243699036299894e+00 -1.4423099735256017e+01 -6.8313610465279559e+00 0 0 0
160 1 1 -1.1570865144435665e+00 -1.4991000643273683e+01 -6.0212624970938791e+00 0 0 0
159 1 1 1.1462763869038639e-01 -1.4297286973310708e+01 -6.5069919119107453e+00 0 0 0
157 1 1 2.5956461800925936e+00 -1.4093036093532692e+01 -6.1667035004980271e+00 0 0 0
158 1 1 1.3101187524914764e+00 -1.4790492139000055e+01 -5.7067185567066794e+00 0 0 0
310 1 1 -1.6818705146362021e+00 -1.1657835936353486e+01 -4.0603695040972845e+00 0 0 0
308 1 1 6.4199304050273653e-01 -1.1998838371642425e+01 -3.0769547762387717e+00 0 0 0
155 1 1 5.0561269752703062e+00 -1.3871642228083932e+01 -5.4302887416509158e+00 0 0 0
156 1 1 3.6949439029643223e+00 -1.4533694870574838e+01 -5.1972832718359463e+00 0 0 0
154 1 1 5.9396916408397473e+00 -1.4330152456010147e+01 -4.2617269523292798e+00 0 0 0
153 1 1 7.3918652455450342e+00 -1.3861964100306764e+01 -4.3637285144526317e+00 0 0 0
152 1 1 8.1425126315879197e+00 -1.4471951194969133e+01 -3.1631761017684283e+00 0 0 0
137 1 1 9.5058525983642070e+00 -1.6704488585223874e+01 -6.2379668235359844e+00 0 0 0
136 1 1 1.0916123285996516e+01 -1.6239277459028024e+01 -5.8817566941100701e+00 0 0 0
151 1 1 9.6146517402736862e+00 -1.4071059902314857e+01 -3.1024973315811586e+00 0 0 0
299 1 1 -5.0304140061754090e+00 -6.6370582998866610e+00 -8.2327812020492530e+00 0 0 0
312 1 1 -3.9514000217616925e+00 -1.1277953003849642e+01 -5.0755051318881108e+00 0 0 0
314 1 1 -6.1958444529252041e+00 -1.0822777484782943e+01 -6.1387902493960098e+00 0 0 0
315 1 1 -6.9072101379536353e+00 -1.0418501752232039e+01 -7.4404982164518820e+00 0 0 0
330 1 1 -8.3656768728181188e+00 -7.8023047919124551e+00 -4.1491962787724361e+00 0 0 0
313 1 1 -4.6781807671166149e+00 -1.0745197631177945e+01 -6.3100573111140896e+00 0 0 0
328 1 1 -6.2380684133815780e+00 -8.4563422547097957e+00 -2.9624215143412762e+00 0 0 0
329 1 1 -7.7704327816886547e+00 -8.5190190743345546e+00 -2.9246774753909577e+00 0 0 0
426 1 1 -3.0511622762260657e+00 -5.8820952871595935e+00 -3.4141867596889099e+00 0 0 0
297 1 1 -2.7292528702674161e+00 -7.3028391352336399e+00 -7.4756871946498578e+00 0 0 0
296 1 1 -1.6003053108904091e+00 -8.3061217931658291e+00 -7.7547192251320531e+00 0 0 0
294 1 1 6.7407417186742435e-01 -9.0880770424618582e+00 -7.1194057112684348e+00 0 0 0
295 1 1 -4.2080436094207130e-01 -8.0620243182535134e+00 -6.8244110663225541e+00 0 0 0
309 1 1 -2.1044361489903096e-01 -1.1263542890508500e+01 -4.1124661544231849e+00 0 0 0
311 1 1 -2.4592199694768411e+00 -1.0956272888421513e+01 -5.1814920909657260e+00 0 0 0
293 1 1 1.9046964222250367e+00 -8.7754987151235611e+00 -6.2750107688435222e+00 0 0 0
307 1 1 2.0842704054032133e+00 -1.1499323466201162e+01 -3.2271320815598870e+00 0 0 0
425 1 1 -1.5464021313115843e+00 -5.9276065437689311e+00 -3.1845072310799054e+00 0 0 0
277 1 1 8.0505952114138069e+00 -6.8994210050166274e+00 -8.1913715181897864e+00 0 0 0
292 1 1 3.0984561458082709e+00 -9.6649000992814642e+00 -6.5265446799465430e+00 0 0 0
291 1 1 4.1645325584698618e+00 -9.0050365849847438e+00 -5.6799764872563436e+00 0 0 0
288 1 1 6.1847339528829863e+00 -7.2977637500289205e+00 -5.2054902493336606e+00 0 0 0
290 1 1 5.5788655040235824e+00 -9.5726329551579852e+00 -5.8057419527111591e+00 0 0 0
289 1 1 6.4095484777471867e+00 -8.7514628330530080e+00 -4.8225147670973278e+00 0 0 0
286 1 1 8.2180916827249888e+00 -6.7192202045929150e+00 -3.8454619737906803e+00 0 0 0
287 1 1 6.8057457507055545e+00 -6.2901916603696151e+00 -4.2363977190246658e+00 0 0 0
275 1 1 1.0073576846067144e+01 -8.1516283218810699e+00 -7.6259379553826250e+00 0 0 0
272 1 1 1.1970771737288981e+01 -9.5151505287743277e+00 -5.9048104475123502e+00 0 0 0
273 1 1 1.0549882944852964e+01 -9.1964573902588427e+00 -5.4280913190704574e+00 0 0 0
274 1 1 9.5595362274605655e+00 -9.1624636697483410e+00 -6.6036480785153984e+00 0 0 0
271 1 1 1.2953536651419025e+01 -9.4988987635177864e+00 -4.7312835599828098e+00 0 0 0
434 1 1 -1.1149323834379414e+01 -2.9831121603920892e+00 -8.3931180319423255e+00 0 0 0
432 1 1 -9.1743825619140207e+00 -3.5452283773235393e+00 -6.9472905462270909e+00 0 0 0
433 1 1 -9.6414105632456621e+00 -3.2304210801154696e+00 -8.3645585030031100e+00 0 0 0
449 1 1 -1.0908639423487850e+01 -3.8289491513801934e+00 -3.1186714156085102e+00 0 0 0
690 1 1 -1.1374128975401405e+01 -7.8283869352531354e-01 -4.7894116368555508e+00 0 0 0
688 1 1 -9.5247209791830265e+00 -2.4984583102245495e-01 -3.1806160159442101e+00 0 0 0
450 1 1 -1.2058103876902297e+01 -4.7786469636840536e+00 -3.4466526742328689e+00 0 0 0
431 1 1 -7.6661543162299299e+00 -3.7957603938379307e+00 -7.0005999150913993e+00 0 0 0
430 1 1 -7.0529507030553855e+00 -4.2398522978393984e+00 -5.6853976301955953e+00 0 0 0
428 1 1 -4.9380211452118665e+00 -4.9308514573815714e+00 -4.5974670148016727e+00 0 0 0
429 1 1 -5.5343431400990806e+00 -4.2419684743200037e+00 -5.8247367670229231e+00 0 0 0
427 1 1 -3.4159264023948239e+00 -5.0699013630501426e+00 -4.6459809094872639e+00 0 0 0
564 1 1 -5.1753800293700714e+00 -3.0529161451493536e-01 -6.5231320948956011e+00 0 0 0
562 1 1 -3.4177310906592986e+00 -1.1416766907178300e+00 -4.8908912499649837e+00 0 0 0
563 1 1 -4.8118145807025794e+00 -5.2672193729188166e-01 -5.0514588831937068e+00 0 0 0
561 1 1 -3.1063671554278365e+00 -1.4408559887972459e+00 -3.4189825260868254e+00 0 0 0
285 1 1 -2.8474717230022861e-01 -3.5921102753798522e+00 -6.7825814402846127e+00 0 0 0
284 1 1 -7.8006589355897660e-02 -4.4272648357832907e+00 -8.0499325326045863e+00 0 0 0
282 1 1 2.1932447938085602e+00 -5.1989950013453807e+00 -7.3537457022270125e+00 0 0 0
540 1 1 2.5521362611723433e+00 -3.8602987508022792e+00 -3.8961452687875742e+00 0 0 0
560 1 1 -1.6257949577446347e+00 -1.8277342180466505e+00 -3.3127442915905760e+00 0 0 0
279 1 1 5.9014090047052967e+00 -5.7234690969754283e+00 -8.3417081384287819e+00 0 0 0
281 1 1 3.7226293827525048e+00 -5.0684838492307875e+00 -7.4575984121553525e+00 0 0 0
401 1 1 4.1659828214768702e+00 -1.5995944968900062e+00 -7.0096910654437465e+00 0 0 0
399 1 1 6.0077503701150619e+00 -2.3786003408769290e+00 -5.5300615916474172e+00 0 0 0
398 1 1 7.4759839486322619e+00 -2.2694575129840544e+00 -5.0876262420676674e+00 0 0 0
397 1 1 7.6184982749509800e+00 -2.8244524614664073e+00 -3.6600746478104220e+00 0 0 0
400 1 1 5.6898931148609115e+00 -1.7621333192687700e+00 -6.8968259510871306e+00 0 0 0
539 1 1 3.2730062212564128e+00 -2.7005904771200022e+00 -3.1864789715292119e+00 0 0 0
387 1 1 9.5685829923396177e+00 -3.4636362180576157e+00 -7.5168994564851097e+00 0 0 0
385 1 1 1.0714349961908699e+01 -4.5716143714542739e+00 -5.5967782306681535e+00 0 0 0
386 1 1 1.0635733940747158e+01 -4.4940650530384332e+00 -7.1166299506418547e+00 0 0 0
384 1 1 1.2020581858990692e+01 -5.1954209059172030e+00 -5.0746253136575099e+00 0 0 0
382 1 1 1.3396885822640410e+01 -5.2115292045682935e+00 -2.9325293748568164e+00 0 0 0
383 1 1 1.2004879038106335e+01 -5.0988753309570924e+00 -3.5453515325569960e+00 0 0 0
610 1 1 1.3690369705284578e+01 -2.6600297174502145e+00 -7.4361504477419409e+00 0 0 0
611 1 1 1.3588305485579578e+01 -1.4085246775248379e+00 -8.2802174048468054e+00 0 0 0
613 1 1 1.2129976228454272e+01 -4.9160687391800195e-01 -6.3829737340004549e+00 0 0 0
612 1 1 1.2266426098661992e+01 -7.6542641944126188e-01 -7.8861748769837980e+00 0 0 0
396 1 1 8.9135698830215055e+00 -2.3272376245811373e+00 -3.0003139938516696e+00 0 0 0
607 1 1 1.7031124920577259e+01 -2.4145323645517891e+00 -7.8995450296281362e+00 0 0 0
609 1 1 1.4779401502196006e+01 -3.6130974046362994e+00 -7.9402335174698813e+00 0 0 0
608 1 1 1.6121292993793187e+01 -3.4451698765502954e+00 -7.2105879245650790e+00 0 0 0
606 1 1 1.7111722364261848e+01 -1.1486145220824397e+00 -7.0544527333313702e+00 0 0 0
810 1 1 -1.5553069203266940e+01 1.7771196767418260e+00 -6.1847960474755190e+00 0 0 0
914 1 1 -1.7848243258520107e+01 5.5636492928971037e+00 -5.9130907081799045e+00 0 0 0
915 1 1 -1.9260612312736122e+01 5.6833144203811372e+00 -6.4839471249175809e+00 0 0 0
689 1 1 -1.0134901650005155e+01 6.5030270308476190e-02 -4.5396963606392831e+00 0 0 0
809 1 1 -1.4358458307015189e+01 2.6849098241048139e+00 -5.8426860729799692e+00 0 0 0
808 1 1 -1.4091642584242765e+01 2.6598148325422670e+00 -4.3458832194078703e+00 0 0 0
807 1 1 -1.2815502940670447e+01 3.4360009801664546e+00 -4.0599174456707274e+00 0 0 0
565 1 1 -6.6336374385248469e+00 1.4537459160580113e-01 -6.6653438889221768e+00 0 0 0
567 1 1 -8.3558173464220520e+00 8.6542559176325540e-01 -8.2639385355944199e+00 0 0 0
566 1 1 -6.9547388155070617e+00 2.9033594863730627e-01 -8.1554494532709469e+00 0 0 0
545 1 1 -3.8514252602132828e+00 2.7810450232251540e+00 -8.2466316096839130e+00 0 0 0
795 1 1 -7.2388831649139931e+00 4.3628025083426678e+00 -5.4775859466732797e+00 0 0 0
687 1 1 -8.3113887871516745e+00 6.6548000986259126e-01 -3.0653455688392910e+00 0 0 0
794 1 1 -6.2189385343091015e+00 3.5009637685286705e+00 -4.7285712602222354e+00 0 0 0
793 1 1 -4.9109770247952795e+00 4.2645566637435337e+00 -4.5633645619415795e+00 0 0 0
792 1 1 -3.9559822430581235e+00 3.4999030682410179e+00 -3.6569665286679935e+00 0 0 0
630 1 1 2.3729695476687382e+00 2.6830744381240805e+00 -7.8229093396184339e+00 0 0 0
629 1 1 2.1505757309094236e+00 4.1943869314192952e+00 -7.8802453204292000e+00 0 0 0
544 1 1 -2.3178470663948296e+00 2.7148171391469162e+00 -8.1193705590422987e+00 0 0 0
541 1 1 -3.9893802632465380e-01 7.9236663196650881e-01 -5.3584214737914451e+00 0 0 0
543 1 1 -1.9916478436396936e+00 2.1124539328448151e+00 -6.7481533934194360e+00 0 0 0
542 1 1 -6.8162412030540054e-01 1.3557907752538512e+00 -6.7520871490687995e+00 0 0 0
645 1 1 1.4091133543048002e+00 3.6382064088113353e+00 -4.3009514477966846e+00 0 0 0
791 1 1 -2.8361863981904420e+00 4.4425300658031190e+00 -3.2156441886129308e+00 0 0 0
512 1 1 6.4076328031001850e+00 3.2469906127999977e+00 -6.2223859664145991e+00 0 0 0
514 1 1 5.6316096995555398e+00 1.3683313158967607e+00 -4.6409298368131893e+00 0 0 0
513 1 1 5.7418838919553110e+00 1.8729660105594590e+00 -6.0733848381840190e+00 0 0 0
511 1 1 6.7308214313728882e+00 3.4146010231159352e+00 -7.7008014754459779e+00 0 0 0
515 1 1 6.9940159816028071e+00 1.1394056768793988e+00 -3.9876522785635515e+00 0 0 0
644 1 1 2.9144813964342546e+00 3.8635552789572074e+00 -4.3585670458645716e+00 0 0 0
639 1 1 7.6415194972159703e+00 4.2972465868675087e+00 -3.2414512195335021e+00 0 0 0
643 1 1 3.4684439410841357e+00 3.7085722851287883e+00 -2.9507405086980221e+00 0 0 0
642 1 1 4.8460423475106147e+00 4.3509540970447489e+00 -2.9827737971739055e+00 0 0 0
735 1 1 1.1356476612412781e+01 3.0881585017437985e+00 -8.2477761893474266e+00 0 0 0
614 1 1 1.0735213908028495e+01 8.1305804248835045e-02 -6.1516154754393710e+00 0 0 0
638 1 1 9.0977054804866526e+00 4.7137300040485144e+00 -3.3096894147901104e+00 0 0 0
635 1 1 1.1693761639522780e+01 3.7045231925597690e+00 -3.2816300574386013e+00 0 0 0
636 1 1 1.1187217892363055e+01 4.2944589293781164e+00 -4.5840908387252703e+00 0 0 0
634 1 1 1.3193514736942003e+01 3.5530831671750533e+00 -3.5141681490356369e+00 0 0 0
637 1 1 9.6804155055366436e+00 4.1030659725209375e+00 -4.5782585402311646e+00 0 0 0
615 1 1 1.0628483206866630e+01 4.5083532791367986e-01 -4.6817279516267263e+00 0 0 0
601 1 1 1.4762818195467592e+01 4.6264306474148498e+00 -7.3500496262179489e+00 0 0 0
605 1 1 1.6875613390346633e+01 1.0940536538919332e-01 -7.8960539491528010e+00 0 0 0
603 1 1 1.5711029647855963e+01 2.3089273290074814e+00 -7.6953680080144160e+00 0 0 0
604 1 1 1.6408501383284726e+01 1.1938075305679448e+00 -6.9238472195059799e+00 0 0 0
602 1 1 1.5480903111715346e+01 3.4437419724408329e+00 -6.7033008033979868e+00 0 0 0
855 1 1 -1.4429442768485654e+01 8.9052762849238718e+00 -6.6643145107421589e+00 0 0 0
913 1 1 -1.7864293566604676e+01 5.9082135267091118e+00 -4.4116271120646182e+00 0 0 0
912 1 1 -1.6436031031518041e+01 5.7942801229888730e+00 -3.8878306216284670e+00 0 0 0
852 1 1 -1.2006086305334827e+01 9.1996458490876876e+00 -5.4109856021963800e+00 0 0 0
854 1 1 -1.4414772106688451e+01 9.0086873779009906e+00 -5.1315819342380955e+00 0 0 0
851 1 1 -1.0803411400775019e+01 1.0118800536399768e+01 -5.2700295377551321e+00 0 0 0
850 1 1 -9.7335535783704632e+00 9.6403356198931363e+00 -6.2356102009623200e+00 0 0 0
849 1 1 -8.7505370073693953e+00 1.0780699644124716e+01 -6.4114552383887684e+00 0 0 0
853 1 1 -1.3211810923151436e+01 9.8619660561862261e+00 -4.7595920409612376e+00 0 0 0
509 1 1 -3.4319655773756885e+00 7.5914094304096835e+00 -8.1841817823726899e+00 0 0 0
510 1 1 -3.3868680951846528e+00 7.2679718916000766e+00 -6.6842050618208191e+00 0 0 0
848 1 1 -7.6165228189115091e+00 1.0274155250497060e+01 -7.3065942016772105e+00 0 0 0
846 1 1 -5.2914699254707571e+00 1.0763451980184549e+01 -8.0073380614977587e+00 0 0 0
847 1 1 -6.5287656159252929e+00 1.1345951228657107e+01 -7.3255301839286950e+00 0 0 0
765 1 1 -5.5903103988522194e+00 1.0702246256124397e+01 -3.6575573190915875e+00 0 0 0