LAMMPS data file via write_data, version 11 Aug 2017, timestep = 1000

1200 atoms
1 atom types
1120 bonds
1 bond types
1040 angles
1 angle types
960 dihedrals
1 dihedral types

-1.2135806791389347e+01 1.2135806791389347e+01 xlo xhi
-2.4852165056374105e+01 2.4911032056374104e+01 ylo yhi
-1.5801529187447986e+01 1.5801529187447986e+01 zlo zhi

Masses

1 14.02

Pair Coeffs # lj/cut

1 0.112 4.01

Bond Coeffs # harmonic

1 350 1.53

Angle Coeffs # harmonic

1 60 109.5

Atoms # molecular

14 1 1 -6.4495534420133422e+00 -1.9745736655277934e+01 -1.3427085520642651e+01 0 0 0
15 1 1 -7.9225382097227186e+00 -2.0123329219832183e+01 -1.3629595610134022e+01 0 0 0
13 1 1 -5.5683665713435628e+00 -2.0921619234719739e+01 -1.3002699300597017e+01 0 0 0
9 1 1 -9.1014372098348595e-01 -2.2815540248040467e+01 -1.3024594359043066e+01 0 0 0
10 1 1 -1.7399192485454265e+00 -2.1547711508230638e+01 -1.3183075796908300e+01 0 0 0
11 1 1 -3.2298774450499508e+00 -2.1791722179554647e+01 -1.3006918109155141e+01 0 0 0
12 1 1 -4.0957456626293745e+00 -2.0502857051285105e+01 -1.3094429612108238e+01 0 0 0
8 1 1 5.6267658315345415e-01 -2.2532710185949547e+01 -1.3265198721025332e+01 0 0 0
4 1 1 5.1373217082321023e+00 -2.4085001829322422e+01 -1.4050335061522413e+01 0 0 0
5 1 1 3.7296561532108754e+00 -2.4593396452406541e+01 -1.3674636104227064e+01 0 0 0
6 1 1 2.8485811358943991e+00 -2.3363665196316919e+01 -1.3694121911067432e+01 0 0 0
7 1 1 1.4400795280500613e+00 -2.3759046223033089e+01 -1.3304737543211031e+01 0 0 0
125 1 1 3.7925253913898800e+00 -1.9357596530570486e+01 -1.3886730829401927e+01 0 0 0
123 1 1 6.1074412853613982e+00 -2.0062167768129981e+01 -1.4231037654343798e+01 0 0 0
2 1 1 7.5618682725278479e+00 -2.4549875880607065e+01 -1.4235966627083183e+01 0 0 0
121 1 1 8.5090217873479066e+00 -2.0655681342283561e+01 -1.4436814168704927e+01 0 0 0
1097 1 1 1.0420987186615585e+01 -2.3497126957962074e+01 -1.0875498097248155e+01 0 1 0
122 1 1 7.5177537919885271e+00 -1.9536274132280795e+01 -1.4166738950051281e+01 0 0 0
1096 1 1 1.1897074958335059e+01 -2.3919643437040296e+01 -1.0849972543271150e+01 0 1 0
134 1 1 -6.4154306878595371e+00 -1.4672630953786069e+01 -1.2859588997364634e+01 0 0 0
135 1 1 -7.8626265361326233e+00 -1.4829255189531159e+01 -1.3058043270054446e+01 0 0 0
133 1 1 -5.5666061017894020e+00 -1.5684347097334243e+01 -1.3606722479822777e+01 0 0 0
129 1 1 -8.9376719243631264e-01 -1.7478290229220498e+01 -1.3805012110019968e+01 0 0 0
130 1 1 -1.6940763956024494e+00 -1.6194788877783772e+01 -1.3597437570064338e+01 0 0 0
131 1 1 -3.1924923282792061e+00 -1.6497698174642380e+01 -1.3831052815845011e+01 0 0 0
132 1 1 -4.0798168841732156e+00 -1.5353742749614760e+01 -1.3329246117630074e+01 0 0 0
128 1 1 5.6975789540144284e-01 -1.7150388616807650e+01 -1.3581964482107642e+01 0 0 0
124 1 1 5.2050520602016004e+00 -1.8887647567184189e+01 -1.3929772975883068e+01 0 0 0
126 1 1 2.9176956507915079e+00 -1.8149295256652238e+01 -1.3490304165647727e+01 0 0 0
127 1 1 1.4434165232949479e+00 -1.8459698417657215e+01 -1.3778144827986026e+01 0 0 0
139 1 1 4.1348042961699303e+00 -1.5224659838616549e+01 -9.5635236062225317e+00 0 0 0
245 1 1 4.0024174349527488e+00 -1.4159008840615773e+01 -1.4266217668618262e+01 0 0 0
243 1 1 6.2844773990674678e+00 -1.5044352091174105e+01 -1.4772841624950278e+01 0 0 0
247 1 1 1.7060230647097860e+00 -1.3208753930129120e+01 -1.4175871698364961e+01 0 0 0
244 1 1 5.4281731468495860e+00 -1.3782878127109935e+01 -1.4564231098782397e+01 0 0 0
137 1 1 6.6725469417357548e+00 -1.5085014477454573e+01 -9.5835578165503392e+00 0 0 0
241 1 1 8.6275630641053791e+00 -1.5887242062548362e+01 -1.4992545983885423e+01 0 0 0
242 1 1 7.7502921133732681e+00 -1.4661231593214351e+01 -1.4981224808775265e+01 0 0 0
255 1 1 -7.9100854417850455e+00 -1.0949416735489786e+01 -1.4209788268282612e+01 0 0 0
254 1 1 -6.5410560401578648e+00 -1.0322564301957398e+01 -1.4112857222759935e+01 0 0 0
253 1 1 -5.4703460137757354e+00 -1.1354155857771385e+01 -1.4508336697869087e+01 0 0 0
249 1 1 -6.0996029801839846e-01 -1.2455856632783249e+01 -1.4449919239589802e+01 0 0 0
251 1 1 -3.0418729689702104e+00 -1.1857824580847478e+01 -1.4561010139440670e+01 0 0 0
250 1 1 -1.6116653631192239e+00 -1.1290554856913268e+01 -1.4340924004998554e+01 0 0 0
252 1 1 -4.0907622647287685e+00 -1.0760483709759121e+01 -1.4370609169453100e+01 0 0 0
248 1 1 7.9371811512793400e-01 -1.1988536325361391e+01 -1.4183376692479193e+01 0 0 0
246 1 1 3.1746192241969720e+00 -1.2868598276166846e+01 -1.4202443280776807e+01 0 0 0
375 1 1 -6.8404775154395399e+00 -7.0394151459223551e+00 -1.2089004397282007e+01 0 0 0
495 1 1 -6.6885024507889925e+00 -2.5739759784485052e+00 -1.4816547084769917e+01 0 0 0
374 1 1 -5.5764839513449829e+00 -6.3182108962873116e+00 -1.2512642295769389e+01 0 0 0
373 1 1 -4.4385428328975971e+00 -7.3429112956223399e+00 -1.2480586969495008e+01 0 0 0
370 1 1 -7.2369038135939867e-01 -6.8157902879248731e+00 -1.3450836502860627e+01 0 0 0
371 1 1 -1.9692408352910995e+00 -7.5574923393031312e+00 -1.2925235829238030e+01 0 0 0
372 1 1 -3.1809486506173652e+00 -6.6722640462509553e+00 -1.3095488486418533e+01 0 0 0
493 1 1 -4.1775221299756726e+00 -2.7240151037028895e+00 -1.4560674778083147e+01 0 0 0
491 1 1 -1.6433662120628405e+00 -2.9909380270146855e+00 -1.4167584705262353e+01 0 0 0
369 1 1 5.5569764189874782e-01 -7.6192640312468889e+00 -1.3271075421559772e+01 0 0 0
368 1 1 1.8335260188535578e+00 -6.9243482323123509e+00 -1.3764583312079839e+01 0 0 0
365 1 1 5.5240781461156008e+00 -7.8356367960874813e+00 -1.2981185919410535e+01 0 0 0
366 1 1 4.3473165443697379e+00 -7.2131840529066906e+00 -1.3758877946950022e+01 0 0 0
367 1 1 3.0309436396681519e+00 -7.7966379063565832e+00 -1.3298214800914387e+01 0 0 0
489 1 1 9.1809967969127904e-01 -3.0799747281960563e+00 -1.3885772059080010e+01 0 0 0
485 1 1 5.8464163882671212e+00 -3.1176479434273361e+00 -1.3459246848970514e+01 0 0 0
487 1 1 3.3715618249604837e+00 -2.9864320546716563e+00 -1.3514657999885257e+01 0 0 0
361 1 1 1.0360294905597465e+01 -7.7244994515457037e+00 -1.2219738043559923e+01 0 0 0
364 1 1 6.7662187859416125e+00 -7.0967192021867547e+00 -1.3350008896986690e+01 0 0 0
362 1 1 9.2966727016273136e+00 -7.0758764702922861e+00 -1.3064357743738851e+01 0 0 0
363 1 1 7.9756282881177132e+00 -7.7530904946300581e+00 -1.2660115490305007e+01 0 0 0
481 1 1 1.0825235448080425e+01 -3.1429946726574762e+00 -1.3355575885194780e+01 0 0 0
482 1 1 9.6133564977504466e+00 -2.3511532978705212e+00 -1.3783562519115264e+01 0 0 0
483 1 1 8.3409680374758022e+00 -3.1281669896741171e+00 -1.3381787226576254e+01 0 0 0
508 1 1 -7.1605113801876232e+00 -1.8412150754799725e+00 -1.0683206628691337e+01 0 0 0
510 1 1 -9.4893844219775421e+00 -2.3990295774785082e+00 -1.1219605313676251e+01 0 0 0
509 1 1 -8.2858159500002824e+00 -2.8030039612090718e+00 -1.0375190732054968e+01 0 0 0
720 1 1 -9.7446998351934511e+00 1.1176623843779474e+00 1.4858319676771288e+01 0 0 0
494 1 1 -5.3840508291575508e+00 -1.7561786136754911e+00 -1.4680417310010947e+01 0 0 0
490 1 1 -3.3193413173929542e-01 -2.1669563735872401e+00 -1.4023574993684180e+01 0 0 0
492 1 1 -2.8318721691461519e+00 -2.0302212466257394e+00 -1.4263817313922274e+01 0 0 0
506 1 1 -4.7142376554291836e+00 -1.1717835421201102e+00 -1.0419881788951827e+01 0 0 0
607 1 1 -2.6102322342643269e-01 2.0281120830316901e+00 -1.3601821152613132e+01 0 0 0
486 1 1 4.6579169757062839e+00 -2.2014636840539907e+00 -1.3758477666128689e+01 0 0 0
488 1 1 2.1437096260312440e+00 -2.1848176913544854e+00 -1.3870854717922308e+01 0 0 0
604 1 1 3.5639925685858369e+00 2.2547815004044729e+00 -1.3408106556873511e+01 0 0 0
605 1 1 2.1814003044501629e+00 1.6365080140730619e+00 -1.3088945112807480e+01 0 0 0
603 1 1 4.6433754465836987e+00 1.3884266246651187e+00 -1.2791583030361272e+01 0 0 0
602 1 1 6.0029975352153837e+00 2.0082308426836839e+00 -1.3107656653802273e+01 0 0 0
484 1 1 7.1180292069452715e+00 -2.3480608489617438e+00 -1.3830204345266864e+01 0 0 0
601 1 1 7.1342828869947699e+00 1.0937428103328415e+00 -1.2607579496140769e+01 0 0 0
613 1 1 -7.3140721647279969e+00 4.1731418198437851e+00 -1.3604108916193315e+01 0 0 0
614 1 1 -8.2463122309382619e+00 5.3824126387113687e+00 -1.3799157178777103e+01 0 0 0
615 1 1 -9.6893358737550148e+00 4.9783760003406243e+00 -1.3534510298096928e+01 0 0 0
609 1 1 -2.6161677454327670e+00 2.6115073337641412e+00 -1.3705742491591408e+01 0 0 0
749 1 1 -6.2034672028208826e+00 7.2108526590466582e+00 -1.0599405436791859e+01 0 0 0
610 1 1 -3.5569773351769651e+00 3.7293511930724641e+00 -1.4001858167037716e+01 0 0 0
611 1 1 -4.9945499537936318e+00 3.4435336387950706e+00 -1.3575593440690833e+01 0 0 0
612 1 1 -5.8647107596087942e+00 4.6927699639156764e+00 -1.3829147773946824e+01 0 0 0
608 1 1 -1.2108493745910849e+00 3.1643857187879689e+00 -1.3911290685265325e+01 0 0 0
733 1 1 -3.5571772114766205e+00 8.3339331336052211e+00 -1.3987825111262680e+01 0 0 0
731 1 1 -1.2760045343451250e+00 7.2948478786220505e+00 -1.3773938761337909e+01 0 0 0
606 1 1 1.1583200448331379e+00 2.5967632241781615e+00 -1.3757877333709251e+01 0 0 0
729 1 1 1.1533587900763216e+00 6.4855657090790331e+00 -1.3328214920720765e+01 0 0 0
725 1 1 6.1183218500548495e+00 5.7000247210884112e+00 -1.3202438372411169e+01 0 0 0
726 1 1 5.0286726830510897e+00 6.7121274440803553e+00 -1.2923347779423535e+01 0 0 0
727 1 1 3.6443020815284601e+00 6.0356249230947476e+00 -1.3123447277145571e+01 0 0 0
728 1 1 2.5638947330950508e+00 7.1281248776789568e+00 -1.3259368442436424e+01 0 0 0
730 1 1 1.9620304807396316e-01 7.6877901281435612e+00 -1.3550760016115461e+01 0 0 0
724 1 1 7.4915886053051377e+00 6.3324356719949968e+00 -1.2951338491347629e+01 0 0 0
721 1 1 1.0987431076602212e+01 4.7739932697045155e+00 -1.3189502260553331e+01 0 0 0
722 1 1 9.9212221755446688e+00 5.8214350688014100e+00 -1.2901637784791539e+01 0 0 0
723 1 1 8.5553015088330309e+00 5.2916704388364693e+00 -1.3266614450230419e+01 0 0 0
870 1 1 -7.8149148248294331e+00 1.1612068190887889e+01 -1.1206487863509590e+01 0 0 0
869 1 1 -6.7608048549047366e+00 1.2684332130114321e+01 -1.0892498360697040e+01 0 0 0
735 1 1 -5.7861551747398687e+00 9.3361105072482928e+00 -1.4110196926124672e+01 0 0 0
734 1 1 -4.2982009908157330e+00 9.6749238807943883e+00 -1.4056494302543879e+01 0 0 0
868 1 1 -5.4049297641894576e+00 1.2021857978242664e+01 -1.0639955318141650e+01 0 0 0
732 1 1 -2.0717082048819080e+00 8.5835422865518964e+00 -1.3982166891034092e+01 0 0 0
849 1 1 -8.6140850245758926e-01 1.2428985324381301e+01 -1.4753262770754009e+01 0 0 0
864 1 1 -5.9126553471642929e-01 1.3077619146222069e+01 -9.9602834946924190e+00 0 0 0
866 1 1 -3.0001535532636190e+00 1.2511453166948854e+01 -1.0101839370298507e+01 0 0 0
867 1 1 -4.3946615723130735e+00 1.3098010251522247e+01 -1.0303790434737664e+01 0 0 0
845 1 1 3.7119208277151099e+00 1.0544989132740533e+01 -1.4883721905189883e+01 0 0 0
847 1 1 1.3939779239688157e+00 1.1431383103053335e+01 -1.4755917178841930e+01 0 0 0
843 1 1 5.9787650046055152e+00 9.7179540917100127e+00 -1.5165446673969955e+01 0 0 0
844 1 1 5.0778327292979260e+00 1.0518316319046711e+01 -1.4216727013953644e+01 0 0 0
846 1 1 2.6863615553601594e+00 1.1278955379000578e+01 -1.4023470195449624e+01 0 0 0
848 1 1 4.3482853332011118e-01 1.2288486833097323e+01 -1.4001422150268871e+01 0 0 0
841 1 1 8.2184783312618546e+00 9.0978624176302887e+00 1.5739961104744374e+01 0 0 -1
842 1 1 7.4226462707963687e+00 9.6888688050088163e+00 -1.4683519290891297e+01 0 0 0
961 1 1 1.0303715037690930e+01 1.2872783148226766e+01 -1.4032791890029644e+01 0 0 0
962 1 1 9.1751333275639393e+00 1.3363691853027035e+01 -1.4937968383836527e+01 0 0 0
855 1 1 -8.0164243709558427e+00 1.4558635437118973e+01 -1.4530149143178434e+01 0 0 0
854 1 1 -6.6372353483419708e+00 1.4889555621212665e+01 -1.3990262770176560e+01 0 0 0
851 1 1 -3.1667102548643307e+00 1.3438433116589771e+01 -1.4773909218574653e+01 0 0 0
853 1 1 -5.5818911048374167e+00 1.3964712923451565e+01 -1.4620085669919909e+01 0 0 0
973 1 1 -3.4658435496372029e+00 1.8861568192593914e+01 -1.3755522881929139e+01 0 0 0
850 1 1 -1.7630971561076336e+00 1.3519691519191745e+01 -1.4171914835593192e+01 0 0 0
852 1 1 -4.1612178598933731e+00 1.4445082303893130e+01 -1.4253638376354919e+01 0 0 0
970 1 1 -2.1670311094565520e-02 1.7343624158211355e+01 -1.4534275415535339e+01 0 0 0
971 1 1 -1.2826756630879377e+00 1.7652672165627585e+01 -1.3658355063883223e+01 0 0 0
972 1 1 -2.2250529425581007e+00 1.8472297539352049e+01 -1.4512016922173068e+01 0 0 0
974 1 1 -4.4837721784790645e+00 1.9448786196312227e+01 -1.4731384027229929e+01 0 0 0
969 1 1 9.7496328034230295e-01 1.6512287542932256e+01 -1.3690516426683393e+01 0 0 0
968 1 1 2.1742379035760120e+00 1.6152346735851097e+01 -1.4577720626803654e+01 0 0 0
965 1 1 5.6151606443384043e+00 1.4400351368504104e+01 -1.3930978940904817e+01 0 0 0
966 1 1 4.4460931754783051e+00 1.5059057363208169e+01 -1.4719524242820425e+01 0 0 0
967 1 1 3.2432623209786229e+00 1.5377064124947189e+01 -1.3822855141553731e+01 0 0 0
964 1 1 6.6949528530069013e+00 1.3985145847259652e+01 -1.4897988441578200e+01 0 0 0
963 1 1 7.9444616323552335e+00 1.3633547473384795e+01 -1.4060851626754218e+01 0 0 0
1081 1 1 6.8518836585627287e+00 1.8017229553757296e+01 -1.5672645836174979e+01 0 0 0
1093 1 1 -6.3170067448650622e+00 2.4238984599790584e+01 -1.2901762199459050e+01 0 0 0
1094 1 1 -7.2761179898963375e+00 -2.4352970886731679e+01 -1.3246534077672846e+01 0 1 0
1095 1 1 -8.5407481120375230e+00 -2.4459208988659380e+01 -1.2396350489125355e+01 0 1 0
975 1 1 -5.7559950009150294e+00 1.9948515318467550e+01 -1.4012507480828527e+01 0 0 0
1089 1 1 -1.7630164934237609e+00 2.2368316409695161e+01 -1.2903812630646522e+01 0 0 0
1090 1 1 -2.6308977088523164e+00 2.3433257937139928e+01 -1.3596040904595654e+01 0 0 0
1091 1 1 -4.0281274324261673e+00 2.3325899816052768e+01 -1.2997822473170022e+01 0 0 0
1092 1 1 -4.9469821515657495e+00 2.4382718670095457e+01 -1.3622404065421540e+01 0 0 0
1088 1 1 -3.8714951493150984e-01 2.2498577230889758e+01 -1.3544867590861433e+01 0 0 0
3 1 1 6.1909114283512263e+00 2.4570045155980353e+01 -1.3862136978184145e+01 0 -1 0
1084 1 1 3.8513220466281997e+00 2.0188555223184082e+01 -1.4711223887008924e+01 0 0 0
1085 1 1 2.7259034611076274e+00 2.0175052637457952e+01 -1.3638039225709196e+01 0 0 0
1086 1 1 1.7084114232280641e+00 2.1279550814408495e+01 -1.3959117969745582e+01 0 0 0
1087 1 1 4.8185909516625891e-01 2.1354809041884124e+01 -1.3015507437535618e+01 0 0 0
1083 1 1 4.7355680912719276e+00 1.8966309140565194e+01 -1.4584783093148891e+01 0 0 0
1082 1 1 5.7823616405090679e+00 1.9107937306573959e+01 -1.5719972634609020e+01 0 0 0
1 1 1 8.6897263185554667e+00 2.4230048544273131e+01 -1.4004409066390576e+01 0 -1 0
976 1 1 8.1597806767835745e+00 2.0686076441211803e+01 -1.2299486521393113e+01 0 0 0
977 1 1 6.7584982259242832e+00 2.0899900514665163e+01 -1.1644250649563713e+01 0 0 0
30 1 1 -7.9116402665410259e+00 -2.3174348327538880e+01 -8.8023540985269513e+00 0 0 0
29 1 1 -6.9657354941005449e+00 -2.2005945059416355e+01 -9.0679515930885533e+00 0 0 0
44 1 1 -7.4806487641366175e+00 -2.4056412637856731e+01 -4.8900288626703912e+00 0 0 0
24 1 1 -5.4469351760628193e-01 -2.1684088981345095e+01 -9.0056031383317254e+00 0 0 0
28 1 1 -5.5566645158963492e+00 -2.2473674904166824e+01 -8.7975940263653385e+00 0 0 0
25 1 1 -1.9454429520050951e+00 -2.1059678631196700e+01 -9.1731902137212806e+00 0 0 0
26 1 1 -3.0495451643249929e+00 -2.2053409049757075e+01 -8.7951146291410627e+00 0 0 0
27 1 1 -4.4587302140052749e+00 -2.1434430715640584e+01 -9.0836863431062582e+00 0 0 0
40 1 1 -2.5148935209391841e+00 -2.3897165502461728e+01 -5.2456640838001611e+00 0 0 0
42 1 1 -5.0210139650128394e+00 -2.4075472599530965e+01 -5.1519068376488750e+00 0 0 0
38 1 1 -1.3933245312586529e-01 -2.3546411999491433e+01 -5.4697900322358812e+00 0 0 0
159 1 1 -1.7509398667142619e+00 -1.9511989503850732e+01 -5.3203408610104894e+00 0 0 0
161 1 1 -4.2740974031476116e+00 -1.9870107857781722e+01 -5.1846639290359580e+00 0 0 0
162 1 1 -5.6139557361401691e+00 -1.9194770529278596e+01 -5.5705031979186650e+00 0 0 0
23 1 1 4.5840223982565398e-01 -2.0651623986162122e+01 -9.4343569603835498e+00 0 0 0
19 1 1 5.3261116009013474e+00 -1.9659167699380966e+01 -9.8624005099234893e+00 0 0 0
20 1 1 4.2883828148647414e+00 -2.0772070698494325e+01 -9.6495592534907804e+00 0 0 0
21 1 1 2.8836065154180268e+00 -2.0210135909602187e+01 -9.6903658234611889e+00 0 0 0
22 1 1 1.8372626911689540e+00 -2.1259062232670118e+01 -9.2361437710127277e+00 0 0 0
1103 1 1 3.2777330986367890e+00 2.4722167217301831e+01 -9.6627944345013219e+00 0 0 0
34 1 1 4.7325642466750022e+00 -2.2574751669384213e+01 -6.1150297031510146e+00 0 0 0
36 1 1 2.3083090991526607e+00 -2.3091020805190812e+01 -5.8579225577941738e+00 0 0 0
1101 1 1 5.7080880524233901e+00 -2.4597711643068418e+01 -9.9384871241383781e+00 0 1 0
1099 1 1 8.0925698356138316e+00 -2.4067381909959046e+01 -1.0302000853483653e+01 0 1 0
1100 1 1 7.1223864969612283e+00 2.4561043976861548e+01 -1.0064033863541852e+01 0 0 0
1098 1 1 9.5380364459818257e+00 -2.4582080852574141e+01 -1.0297182532092894e+01 0 1 0
16 1 1 9.1194399141231042e+00 -1.9811861811030784e+01 -9.6898168144123513e+00 0 0 0
18 1 1 6.7074710387015823e+00 -2.0338961421365941e+01 -9.9704900460193961e+00 0 0 0
31 1 1 8.5070579414554057e+00 -2.2406579387435297e+01 -5.9215049520518441e+00 0 0 0
32 1 1 7.1000112884678988e+00 -2.2146232913928760e+01 -6.4066792222081137e+00 0 0 0
149 1 1 -8.1558958013054479e+00 -1.7270622339459887e+01 -9.1734664404737387e+00 0 0 0
148 1 1 -6.8607802400475135e+00 -1.7628783069708511e+01 -9.8977740408730313e+00 0 0 0
150 1 1 -9.4021101703790304e+00 -1.7955594720750405e+01 -9.8024826329765773e+00 0 0 0
283 1 1 -7.7046041624294013e+00 -1.5536405753290714e+01 -5.6188762670745920e+00 0 0 0
285 1 1 -1.0159302887703070e+01 -1.6110033556516022e+01 -5.4315189547427067e+00 0 0 0
284 1 1 -9.1223128005944183e+00 -1.5193051286335411e+01 -6.1040245023846822e+00 0 0 0
282 1 1 -6.6486987991009947e+00 -1.4656629961810768e+01 -6.3142055575171110e+00 0 0 0
144 1 1 -1.8897431670631857e+00 -1.7106635471836768e+01 -9.6376325753617795e+00 0 0 0
145 1 1 -3.2504911149833760e+00 -1.6544377348834736e+01 -9.1676992258884962e+00 0 0 0
146 1 1 -4.3884476595809696e+00 -1.7364402131859745e+01 -9.7826602375330527e+00 0 0 0
147 1 1 -5.7072213016484996e+00 -1.6860420870936675e+01 -9.2546419514653415e+00 0 0 0
143 1 1 -7.4118889979419578e-01 -1.6227819263992536e+01 -9.1789051130805266e+00 0 0 0
160 1 1 -3.1191922920122899e+00 -1.8997440990918186e+01 -5.7425709840964103e+00 0 0 0
279 1 1 -2.8761206317796084e+00 -1.4663396498138747e+01 -5.8407761454017884e+00 0 0 0
158 1 1 -6.6386321831090989e-01 -1.8568106026641292e+01 -5.8296806327169080e+00 0 0 0
277 1 1 -4.9280078136565209e-01 -1.3995601933053338e+01 -5.6099354245180457e+00 0 0 0
281 1 1 -5.2908549761045789e+00 -1.5012760506348249e+01 -5.6893030997332836e+00 0 0 0
280 1 1 -4.2345639746120431e+00 -1.4146404364932458e+01 -6.3523230288501775e+00 0 0 0
140 1 1 3.0249304755249025e+00 -1.6132623557766870e+01 -1.0024873469313640e+01 0 0 0
141 1 1 1.7412094178830859e+00 -1.5833965249240464e+01 -9.2553859512431096e+00 0 0 0
142 1 1 5.9133966594472831e-01 -1.6626982792583561e+01 -9.8561248020377690e+00 0 0 0
138 1 1 5.4402757859812194e+00 -1.5722346342231406e+01 -1.0222811467516529e+01 0 0 0
154 1 1 4.1730594240373531e+00 -1.7882244658403462e+01 -5.8347621108224352e+00 0 0 0
155 1 1 3.1488926353549314e+00 -1.8935676940259913e+01 -5.5706288199090643e+00 0 0 0
156 1 1 1.7792643617519150e+00 -1.8288811739114546e+01 -5.8850678572438184e+00 0 0 0
157 1 1 6.9195330832111246e-01 -1.9276747986703910e+01 -5.5891412583671123e+00 0 0 0
153 1 1 5.6269570963348468e+00 -1.8408597083324054e+01 -5.8546346036259305e+00 0 0 0
17 1 1 7.7299979139000978e+00 -1.9218699380504574e+01 -9.9011504934556207e+00 0 0 0
136 1 1 7.9370316656988695e+00 -1.5546244961470505e+01 -1.0330442230540317e+01 0 0 0
151 1 1 7.9985910785379364e+00 -1.7801681776788108e+01 -6.1789664832629381e+00 0 0 0
152 1 1 6.5626469976986090e+00 -1.7328996127161552e+01 -6.4153564050236120e+00 0 0 0
268 1 1 -6.9945293317889563e+00 -1.1736977927398682e+01 -9.9322007823863849e+00 0 0 0
270 1 1 -9.4792111326252702e+00 -1.1789917993526341e+01 -9.7499717299545186e+00 0 0 0
269 1 1 -8.2774841763228579e+00 -1.0885762712771287e+01 -9.8734937163317902e+00 0 0 0
264 1 1 -2.1179807433137618e+00 -1.1457124773356655e+01 -1.0234912704973187e+01 0 0 0
266 1 1 -4.5500717392970271e+00 -1.1543266800631017e+01 -1.0323295962333638e+01 0 0 0
265 1 1 -3.3540619543146430e+00 -1.0589267265931515e+01 -1.0170573683518743e+01 0 0 0
267 1 1 -5.8624065402823264e+00 -1.0732115192186704e+01 -1.0182030390087160e+01 0 0 0
263 1 1 -9.1471068273607337e-01 -1.0545845136400155e+01 -9.9956488104363999e+00 0 0 0
405 1 1 -5.0172859353270605e+00 -1.0374172516335863e+01 -6.2350457043256586e+00 0 0 0
403 1 1 -2.5318293719295060e+00 -9.8797272974801480e+00 -6.2658521473793307e+00 0 0 0
404 1 1 -3.8747449653326953e+00 -9.6757797121022335e+00 -5.5387543213938706e+00 0 0 0
401 1 1 -6.3363987359712937e-02 -9.1979234369493863e+00 -6.3281227834680998e+00 0 0 0
402 1 1 -1.4260674171560925e+00 -9.0657967955349079e+00 -5.5785884257069274e+00 0 0 0
278 1 1 -1.8427805121538849e+00 -1.3611129195832257e+01 -6.2170308607566618e+00 0 0 0
260 1 1 2.8149160100082415e+00 -1.1177312801230959e+01 -1.0061969689643988e+01 0 0 0
262 1 1 4.0611571458723894e-01 -1.1355373074770739e+01 -1.0051658500784171e+01 0 0 0
258 1 1 5.2637875748473935e+00 -1.1240581401703080e+01 -1.0485836808250198e+01 0 0 0
259 1 1 4.0634689611254142e+00 -1.0309104432964393e+01 -1.0279783614301774e+01 0 0 0
261 1 1 1.5474831237143576e+00 -1.0387807177452192e+01 -1.0078860304393746e+01 0 0 0
275 1 1 1.9424184216600029e+00 -1.3562012942266703e+01 -5.7319213108724814e+00 0 0 0
400 1 1 1.0891413951934794e+00 -8.4577123292767915e+00 -5.6131992161698019e+00 0 0 0
273 1 1 4.4259224180339327e+00 -1.3141976715935511e+01 -5.9574948176142186e+00 0 0 0
274 1 1 3.0332292289409502e+00 -1.2686586049253856e+01 -6.3572460107590825e+00 0 0 0
276 1 1 5.8009498154199690e-01 -1.3135397743596917e+01 -6.2755531388698120e+00 0 0 0
272 1 1 5.4716722072812392e+00 -1.2449856145761089e+01 -6.7809041732792767e+00 0 0 0
256 1 1 7.8313787302425286e+00 -1.1432217182651760e+01 -1.0431585452152756e+01 0 0 0
257 1 1 6.6030535857672721e+00 -1.0537613836262972e+01 -1.0211909449878053e+01 0 0 0
271 1 1 6.8180695171774541e+00 -1.2901180435320814e+01 -6.2492790335930195e+00 0 0 0
391 1 1 1.2039443252686651e+01 -8.3373514838088987e+00 -8.0697788785721691e+00 0 0 0
392 1 1 1.0959255733827872e+01 -7.7091851132748594e+00 -7.1526015077851284e+00 0 0 0
393 1 1 9.5631660608158047e+00 -8.2413644576808451e+00 -7.4359797973712674e+00 0 0 0
389 1 1 -7.8683389556731971e+00 -5.9717844363487416e+00 -7.7965453778585108e+00 0 0 0
390 1 1 -8.9445750485769402e+00 -6.8125989373601854e+00 -7.0954038455190815e+00 0 0 0
525 1 1 -8.5011597966981576e+00 -3.4214567193190106e+00 -4.3423068562258162e+00 0 0 0
388 1 1 -6.5266337944909782e+00 -6.7094078189223332e+00 -7.6668896413832996e+00 0 0 0
384 1 1 -1.7663040446742073e+00 -6.2722705870489790e+00 -8.9939397600877129e+00 0 0 0
385 1 1 -3.0739960802493016e+00 -5.5279802375715974e+00 -8.7681864750437484e+00 0 0 0
386 1 1 -4.1151462619577490e+00 -6.5560675439714089e+00 -8.3803561835497256e+00 0 0 0
387 1 1 -5.4661308433417348e+00 -5.7704583185591360e+00 -8.2864955424684226e+00 0 0 0
383 1 1 -6.1346131649075453e-01 -5.4107187932691616e+00 -9.3631606847948863e+00 0 0 0
523 1 1 -6.1021769130625376e+00 -3.4549270839189887e+00 -4.8477548919661260e+00 0 0 0
519 1 1 -1.2027952418870527e+00 -3.4803402420788352e+00 -5.4727827248963798e+00 0 0 0
379 1 1 4.2140826957727366e+00 -5.0017848936836415e+00 -9.7208321704284408e+00 0 0 0
380 1 1 3.1817448218579347e+00 -6.0986560877372362e+00 -9.4624015761288582e+00 0 0 0
382 1 1 6.2023655077011597e-01 -6.3146247474613553e+00 -9.3937121066385885e+00 0 0 0
378 1 1 5.6305986604923088e+00 -5.5457317284779108e+00 -9.7348232739027409e+00 0 0 0
399 1 1 2.3484862066915966e+00 -8.5670446187440206e+00 -6.4712925645175101e+00 0 0 0
397 1 1 4.7606462704188441e+00 -8.3743234177061758e+00 -6.6726766297098230e+00 0 0 0
381 1 1 1.8236453075690839e+00 -5.3905558974760623e+00 -9.6548027094949695e+00 0 0 0
398 1 1 3.5526814222920677e+00 -7.9195137199970880e+00 -5.8063397995269970e+00 0 0 0
396 1 1 6.0086896882573857e+00 -7.9014776968754212e+00 -6.0117895431948458e+00 0 0 0
515 1 1 3.7394757192818755e+00 -3.7440669697543747e+00 -5.5078325590452994e+00 0 0 0
517 1 1 1.2879727649537074e+00 -3.5301991833891506e+00 -5.3969834795046641e+00 0 0 0
514 1 1 5.0518452872748671e+00 -3.2375353551344972e+00 -6.0938995197804804e+00 0 0 0
516 1 1 2.5663945502930225e+00 -2.8420285609616336e+00 -5.8985001424272081e+00 0 0 0
376 1 1 8.0590476799478576e+00 -5.0848803722911136e+00 -9.7471989986361045e+00 0 0 0
395 1 1 7.1765749670647647e+00 -8.3638133671404020e+00 -6.8932728253210858e+00 0 0 0
377 1 1 6.6755587935333747e+00 -4.4292151583440891e+00 -9.7732043799904496e+00 0 0 0
394 1 1 8.5021685057852689e+00 -7.7123313790531860e+00 -6.4909366791372598e+00 0 0 0
511 1 1 8.7851906561938247e+00 -4.0224333967497010e+00 -5.3910182760481113e+00 0 0 0
512 1 1 7.5278658186352505e+00 -3.4597929533282965e+00 -6.0566029558206633e+00 0 0 0
513 1 1 6.2360014962730599e+00 -3.9986440140869561e+00 -5.4519830282202424e+00 0 0 0
630 1 1 -6.9917624641509946e+00 2.3712716786313521e+00 -9.7579681885054512e+00 0 0 0
643 1 1 -9.3292135097986275e+00 1.3882425263170575e+00 -4.9846552127604795e+00 0 0 0
644 1 1 -1.0726346753343043e+01 1.4606593492094184e+00 -5.6370474796396852e+00 0 0 0
642 1 1 -8.2402594779954548e+00 1.2209979349467268e+00 -6.1007955233540461e+00 0 0 0
641 1 1 -6.9079130499867825e+00 1.3243371699765802e+00 -5.3681250717687767e+00 0 0 0
504 1 1 -2.2646496721638520e+00 -9.9043514759498663e-01 -1.0235167966613322e+01 0 0 0
505 1 1 -3.4794102130587383e+00 -1.7286718390136357e+00 -9.7256992213255522e+00 0 0 0
507 1 1 -5.8277355082951496e+00 -2.1627261610530226e+00 -9.9937453406039403e+00 0 0 0
503 1 1 -9.9337562923432898e-01 -1.5817430881991967e+00 -9.6743841501100860e+00 0 0 0
628 1 1 -4.5030474022670619e+00 2.7414226361501726e+00 -9.9498336167127412e+00 0 0 0
502 1 1 2.2850560946104714e-01 -7.5507405234466773e-01 -1.0116401361141357e+01 0 0 0
639 1 1 -4.4391561091317095e+00 1.5454737774480627e+00 -5.4940659817576911e+00 0 0 0
640 1 1 -5.7054546457906445e+00 1.2400770857521941e+00 -6.3062129476760571e+00 0 0 0
638 1 1 -3.1635160407762140e+00 1.3613424199033268e+00 -6.3391693328948744e+00 0 0 0
637 1 1 -1.9968390159543130e+00 1.7960679465579865e+00 -5.5022203412359492e+00 0 0 0
636 1 1 -6.5837888194597838e-01 1.5503094273967122e+00 -6.2181211901423659e+00 0 0 0
500 1 1 2.7158983879911034e+00 -4.4217807839165957e-01 -9.8488221724546108e+00 0 0 0
498 1 1 4.9599846078066729e+00 4.2921112395791994e-02 -9.1980211726968939e+00 0 0 0
499 1 1 3.9073435420137077e+00 -1.0686755270567012e+00 -9.1324677028080856e+00 0 0 0
501 1 1 1.5459430222597259e+00 -1.3534838841196155e+00 -9.6255805910414320e+00 0 0 0
635 1 1 4.8356100705617244e-01 2.0410001178124162e+00 -5.3761957992965357e+00 0 0 0
633 1 1 3.0012730090320279e+00 2.0434062692903012e+00 -5.0646489573898315e+00 0 0 0
497 1 1 6.2600263306874506e+00 -5.0658601351165800e-01 -8.5867495909251375e+00 0 0 0
634 1 1 1.8344624194083199e+00 1.7518505373742457e+00 -6.0462962282687975e+00 0 0 0
496 1 1 7.3398224921005504e+00 5.5849023614212001e-01 -8.5785373013913073e+00 0 0 0
750 1 1 -7.1565133249961761e+00 7.9102972813396448e+00 -9.7002822349020583e+00 0 0 0
764 1 1 -7.2854257381229344e+00 6.0675886311300609e+00 -5.9592481585342316e+00 0 0 0
765 1 1 -8.3876987157600471e+00 5.3697305281026395e+00 -6.7969614598644714e+00 0 0 0
629 1 1 -5.8414888840154031e+00 3.3704733566798453e+00 -9.5146667974991317e+00 0 0 0
748 1 1 -4.8720550219354095e+00 7.0509320779429174e+00 -9.8895147485910559e+00 0 0 0
744 1 1 -2.5898765740688567e-01 8.4415219929710190e+00 -9.4872478698310250e+00 0 0 0
746 1 1 -2.6157250279813375e+00 7.9479861111360179e+00 -9.5443535242949231e+00 0 0 0
747 1 1 -4.0184582842630920e+00 8.3153112233045121e+00 -1.0017582288261369e+01 0 0 0
625 1 1 -9.1786262066977642e-01 4.1140297447313614e+00 -9.7184860062971836e+00 0 0 0
626 1 1 -2.0041355060679908e+00 3.0848682201065181e+00 -9.9544626016832112e+00 0 0 0
627 1 1 -3.3372737538694537e+00 3.6947282343561909e+00 -9.7471407913510859e+00 0 0 0
763 1 1 -5.9595363717260765e+00 5.4319840597204774e+00 -6.2982836467759515e+00 0 0 0
759 1 1 -1.0788945149788081e+00 5.8892942397353529e+00 -5.8448309176627973e+00 0 0 0
760 1 1 -2.4383090025599383e+00 6.5652017483552854e+00 -5.4937016590884937e+00 0 0 0
761 1 1 -3.5006701480218716e+00 5.5679094765528312e+00 -5.9114460517556573e+00 0 0 0
762 1 1 -4.8282838298149100e+00 6.1710118908756364e+00 -5.5916320767402290e+00 0 0 0
619 1 1 6.3027912361772085e+00 5.6973676135863087e+00 -8.9638306063755966e+00 0 0 0
621 1 1 3.8968461702273256e+00 5.0106969824236742e+00 -9.0460990376650656e+00 0 0 0
624 1 1 4.7353015625532535e-01 3.5097862716973864e+00 -9.8307332281448669e+00 0 0 0
623 1 1 1.5294568728806084e+00 4.5531850138780925e+00 -9.3653016357123295e+00 0 0 0
620 1 1 5.3375389422569750e+00 4.5414434014157763e+00 -9.2066776334177831e+00 0 0 0
622 1 1 2.9179082561863581e+00 3.9773774429309796e+00 -9.4586463107510141e+00 0 0 0
632 1 1 4.3396543261142089e+00 1.7387184897035048e+00 -5.7460618732301345e+00 0 0 0
754 1 1 4.9420986331124208e+00 7.5458714067792911e+00 -4.7404649253119846e+00 0 0 0
756 1 1 2.4548609622344326e+00 7.3962114174346567e+00 -5.1481732979378929e+00 0 0 0
757 1 1 1.3983428217552287e+00 6.4063251184867660e+00 -5.6392504561703696e+00 0 0 0
758 1 1 -2.2652999717204025e-02 6.9788720799894648e+00 -5.4888529581364001e+00 0 0 0
631 1 1 5.5137462889440254e+00 2.0842744399421314e+00 -4.8259288721809614e+00 0 0 0
616 1 1 1.0133312699065490e+01 5.8364931501188018e+00 -8.8611122617899287e+00 0 0 0
617 1 1 8.6848933655769986e+00 6.3262717601968710e+00 -8.7738075003648426e+00 0 0 0
618 1 1 7.7617829439069386e+00 5.1988362203290990e+00 -9.0841263328782755e+00 0 0 0