LAMMPS data file via write_data, version 11 Aug 2017, timestep = 5000

1200 atoms
1 atom types
1120 bonds
1 bond types
1040 angles
1 angle types
960 dihedrals
1 dihedral types

-2.5357800111473317e+01 2.5357800111473317e+01 xlo xhi
-5.0715600222946634e+01 5.0715600222946634e+01 ylo yhi
-3.1697250139341566e+01 3.1697250139341566e+01 zlo zhi

Masses

1 14.02

Pair Coeffs # lj/cut

1 0.112 4.01

Bond Coeffs # harmonic

1 350 1.53

Angle Coeffs # harmonic

1 60 109.5

Atoms # molecular

195 1 1 -1.5299895305765158e+01 -6.6150096604907276e+00 -1.9004403516489752e+01 0 0 0
193 1 1 -1.3271993335243844e+01 -6.9060631321350243e+00 -1.7608249814865054e+01 0 0 0
194 1 1 -1.4793906831593471e+01 -6.7778680662778257e+00 -1.7569776564402055e+01 0 0 0
315 1 1 -7.3768606745831597e+00 -5.3001965735858008e+00 -1.7032501532864828e+01 0 0 0
269 1 1 9.1472963637260563e-01 -5.0617925942203073e+00 -1.4896850112073825e+01 0 0 0
268 1 1 1.1727743050234629e+00 -5.1532802849490338e+00 -1.3390200589249293e+01 0 0 0
267 1 1 1.7460185739048164e+00 -6.5448047424429205e+00 -1.3130846848842591e+01 0 0 0
253 1 1 7.1385904721707192e+00 -2.4985888227916035e+00 -1.1271223793512057e+01 0 0 0
255 1 1 5.4963308206790700e+00 -6.3836152177123751e-01 -1.1455236299075214e+01 0 0 0
254 1 1 6.6953524884495721e+00 -1.1650937799196086e+00 -1.0675285825734587e+01 0 0 0
251 1 1 8.6227099265954479e+00 -4.4781013319162000e+00 -1.0803112545514242e+01 0 0 0
249 1 1 1.0048323510759403e+01 -6.4311899815313822e+00 -1.0084470202505567e+01 0 0 0
252 1 1 8.2730240784163769e+00 -3.0430177732148351e+00 -1.0407036896158324e+01 0 0 0
435 1 1 -1.3487563692083429e+01 3.7482579239650775e+00 -2.3294617091260545e+01 0 0 0
434 1 1 -1.2652317418038152e+01 2.6480465394164057e+00 -2.2643155002281638e+01 0 0 0
432 1 1 -1.1194192161348095e+01 2.0964413916908384e+00 -2.0698951015980125e+01 0 0 0
433 1 1 -1.2127144309210843e+01 3.1477235846961520e+00 -2.1295397134653385e+01 0 0 0
431 1 1 -1.0715211876557174e+01 2.5308639491127138e+00 -1.9317034791726719e+01 0 0 0
430 1 1 -9.8825712385096978e+00 1.3721242548787842e+00 -1.8769726831015991e+01 0 0 0
270 1 1 4.2019720192802623e-01 -3.6703164397785102e+00 -1.5280789629124953e+01 0 0 0
375 1 1 -2.9624406044168374e+00 2.2692139983762303e+00 -1.6490604955367765e+01 0 0 0
373 1 1 -8.1284746801080843e-01 2.6116922493393062e+00 -1.5202745951729064e+01 0 0 0
374 1 1 -2.0738595036714571e+00 3.2834397315253625e+00 -1.5760361700476624e+01 0 0 0
372 1 1 1.1425924493697792e-01 3.6568401615089527e+00 -1.4562303681140328e+01 0 0 0
371 1 1 1.1831044705158114e+00 2.9167526104932691e+00 -1.3751071134497348e+01 0 0 0
370 1 1 2.1005688474019131e+00 3.8418596491535553e+00 -1.2939463852114560e+01 0 0 0
369 1 1 3.0847990392873328e+00 2.9729660522969610e+00 -1.2144305547474261e+01 0 0 0
368 1 1 4.1956657663680410e+00 3.8070292581709140e+00 -1.1494722177929368e+01 0 0 0
367 1 1 5.2563438139534746e+00 2.8530379034240241e+00 -1.0936804569571613e+01 0 0 0
363 1 1 9.9818565760225866e+00 2.1571862270991460e+00 -9.6442742769695151e+00 0 0 0
365 1 1 7.6067739840947155e+00 2.5400601852141733e+00 -1.0208626327587531e+01 0 0 0
366 1 1 6.5172241451252688e+00 3.5811056137783623e+00 -1.0467035450536837e+01 0 0 0
364 1 1 8.8926338373581473e+00 3.2254881560410951e+00 -9.7506680999177355e+00 0 0 0
362 1 1 1.1227609825991365e+01 2.7491433156768821e+00 -8.9793730973885530e+00 0 0 0
361 1 1 1.2354684066105335e+01 1.7176425814426963e+00 -9.0165833918950469e+00 0 0 0
569 1 1 -1.5046605769777688e+01 1.0112734238792967e+01 -1.9511346365641899e+01 0 0 0
568 1 1 -1.4054146424360445e+01 1.0130490318712283e+01 -1.8354212407594879e+01 0 0 0
567 1 1 -1.3427789080564835e+01 8.7498184180397303e+00 -1.8256454061810700e+01 0 0 0
490 1 1 -7.8301562953719532e+00 1.0626694330172249e+01 -1.5416854329928611e+01 0 0 0
564 1 1 -1.0825343222869606e+01 7.2630707389643874e+00 -1.5944161819177175e+01 0 0 0
565 1 1 -1.1949107408152324e+01 7.2743658799687410e+00 -1.6970155687211562e+01 0 0 0
566 1 1 -1.2518762201445247e+01 8.6909296167772254e+00 -1.7035599038245998e+01 0 0 0
485 1 1 -1.8197382390075063e+00 9.2663090749523533e+00 -1.4348205930688508e+01 0 0 0
488 1 1 -5.6048020771562648e+00 9.7326338391061284e+00 -1.4705409273111425e+01 0 0 0
487 1 1 -4.1085944062694999e+00 9.9219495195890488e+00 -1.4927933571691689e+01 0 0 0
486 1 1 -3.2885906215695861e+00 9.0330126926706171e+00 -1.3994153483141698e+01 0 0 0
484 1 1 -8.7580545381925390e-01 8.3964105889981937e+00 -1.3515092824832323e+01 0 0 0
482 1 1 1.5525731937986080e+00 7.8256102298893637e+00 -1.3180454224852369e+01 0 0 0
483 1 1 5.5798818420576168e-01 8.6551061177760573e+00 -1.3991796252865822e+01 0 0 0
481 1 1 2.9714939678930676e+00 8.1028923639301524e+00 -1.3683990690099517e+01 0 0 0
496 1 1 6.5956918484525886e+00 7.1818829044484787e+00 -1.2053135857995947e+01 0 0 0
498 1 1 5.8882718673271839e+00 8.8415058233106123e+00 -1.0428645605208132e+01 0 0 0
729 1 1 1.6471130462096205e+01 8.0877312386393641e-01 -7.8939222600898873e+00 0 0 0
728 1 1 1.6063571059813100e+01 2.1082228510915755e+00 -8.5883031977153621e+00 0 0 0
570 1 1 -1.5701454767180678e+01 1.1491212133275894e+01 -1.9577142843235940e+01 0 0 0
495 1 1 -9.0684481892000193e+00 1.6675659834075020e+01 -1.6556991239084191e+01 0 0 0
493 1 1 -8.7565386112562891e+00 1.4198786434768280e+01 -1.6433893165845642e+01 0 0 0
491 1 1 -8.4941286074439049e+00 1.1728339684575460e+01 -1.6238313431889612e+01 0 0 0
492 1 1 -8.1403982664378667e+00 1.3073489535425104e+01 -1.5609711654586835e+01 0 0 0
489 1 1 -6.3212035491744309e+00 1.0778521390346683e+01 -1.5559027955586970e+01 0 0 0
494 1 1 -8.4610105182670416e+00 1.5528703635431341e+01 -1.5744443576407278e+01 0 0 0
973 1 1 -4.6647250529735693e+00 1.2136324599627528e+01 -1.1250224586540366e+01 0 0 0
975 1 1 -2.7472141027806778e+00 1.2953949867711671e+01 -1.2601654032527748e+01 0 0 0
974 1 1 -3.2957902978974971e+00 1.2816179464938280e+01 -1.1177248467119728e+01 0 0 0
972 1 1 -5.2409842557392672e+00 1.1873670741372436e+01 -9.8548425149158270e+00 0 0 0
749 1 1 9.4737878142551679e+00 7.5216754873399410e+00 -7.0034205357223591e+00 0 0 0
726 1 1 1.5996477486984894e+01 4.6059806086973580e+00 -8.4221039920086902e+00 0 0 0
1028 1 1 1.7984895202989691e+01 7.1610030444558177e+00 -2.1744460594263863e+01 0 0 0
1031 1 1 1.7502231345767065e+01 8.2783165981203837e+00 -1.8928512734132877e+01 0 0 0
1030 1 1 1.8595029094701395e+01 7.2748955431646110e+00 -1.9296095612804770e+01 0 0 0
1029 1 1 1.8146327050353158e+01 6.3610550010957070e+00 -2.0445124555881733e+01 0 0 0
1026 1 1 2.0357865844369776e+01 6.6761110180968970e+00 -2.2443546181385884e+01 0 0 0
551 1 1 -1.3911847152845217e+01 1.7399059945296756e+01 -1.6484163382369246e+01 0 0 0
552 1 1 -1.4056554541510272e+01 1.8905251791975402e+01 -1.6242106115808973e+01 0 0 0
553 1 1 -1.4659198852243957e+01 1.9586147357643483e+01 -1.7470850980633031e+01 0 0 0
555 1 1 -1.5146954908314026e+01 2.1797068841593727e+01 -1.8511497497177587e+01 0 0 0
554 1 1 -1.4729500950455133e+01 2.1093218609102848e+01 -1.7218520456033890e+01 0 0 0
971 1 1 -5.8212390753337253e+00 1.3138105149193557e+01 -9.2131842108578006e+00 0 0 0
1032 1 1 1.8063029188536945e+01 9.2417581259846031e+00 -1.7879113865905460e+01 0 0 0
1025 1 1 2.1713345931856594e+01 7.3371694601490134e+00 -2.2703537122888907e+01 0 0 0
1027 1 1 1.9323150575055088e+01 7.7712370603759950e+00 -2.2166611512688142e+01 0 0 0
1022 1 1 2.2902847138688614e+01 7.9022133096409206e+00 -1.9080334827784533e+01 0 0 0
1023 1 1 2.2667270554977634e+01 7.1242997423720524e+00 -2.0375793652798418e+01 0 0 0
1024 1 1 2.2161363781819993e+01 8.0939493753430156e+00 -2.1446893304222822e+01 0 0 0
1021 1 1 2.3907944156396546e+01 9.0278274558095504e+00 -1.9331483454833574e+01 0 0 0
65 1 1 1.1292583163044569e+01 -2.2929498602941749e+01 -1.4104783281204824e+01 0 0 0
67 1 1 1.0462514286869066e+01 -2.4325545040384540e+01 -1.2202505883468238e+01 0 0 0
66 1 1 1.0853217841824652e+01 -2.2909987180047612e+01 -1.2638266709275285e+01 0 0 0
63 1 1 1.2954892223457662e+01 -2.3805741330127763e+01 -1.5747865380065372e+01 0 0 0
62 1 1 1.4199138180302853e+01 -2.4669328892039964e+01 -1.5949330225098635e+01 0 0 0
61 1 1 1.5418288872449416e+01 -2.3988784244739506e+01 -1.5319188594174257e+01 0 0 0
64 1 1 1.2567347824439672e+01 -2.3761539286194672e+01 -1.4267580689481758e+01 0 0 0
705 1 1 -2.3081259863260446e+01 -2.3177092626962871e+01 -1.2666744979724509e+01 0 0 0
704 1 1 -2.2181031037089184e+01 -2.1992798605598541e+01 -1.3028734805725669e+01 0 0 0
15 1 1 2.3394163626715887e+00 -1.6502058395415375e+01 -4.2137695899340919e+00 0 0 0
13 1 1 4.6464436093645141e+00 -1.6931590029521018e+01 -3.3804594044727452e+00 0 0 0
14 1 1 3.1597418479836179e+00 -1.7147735483132678e+01 -3.0925894954132822e+00 0 0 0
12 1 1 5.4894882446403521e+00 -1.7454536649802975e+01 -2.2159053141126641e+00 0 0 0
11 1 1 5.4230651976959976e+00 -1.8978632678350657e+01 -2.1175797014386966e+00 0 0 0
703 1 1 -2.2446959333668524e+01 -2.0857770729180853e+01 -1.2039164700689941e+01 0 0 0
702 1 1 -2.1556262048897924e+01 -1.9665487186292154e+01 -1.2393350418580145e+01 0 0 0
208 1 1 -1.3161976489816094e+01 -1.1383553799654216e+01 -1.2315317486268704e+01 0 0 0
207 1 1 -1.1987100462123038e+01 -1.1887116510828001e+01 -1.1465432001037343e+01 0 0 0
210 1 1 -1.5653070845988038e+01 -1.1068383171796178e+01 -1.2367835482973426e+01 0 0 0
209 1 1 -1.4458661468714476e+01 -1.1475398745893244e+01 -1.1504894986819775e+01 0 0 0
191 1 1 -1.1262084514521471e+01 -7.4575295836173296e+00 -1.6194688519562980e+01 0 0 0
189 1 1 -9.4853190105834830e+00 -8.2037424815253104e+00 -1.4522087706719955e+01 0 0 0
187 1 1 -7.9550127634520429e+00 -8.9127679764952532e+00 -1.2633117569715761e+01 0 0 0
165 1 1 -3.4813901231087492e+00 -1.5211229946949189e+01 -5.3990899515265660e+00 0 0 0
135 1 1 -7.2683665887946347e-01 -1.1259054035572667e+01 -8.2641943123113073e+00 0 0 0
134 1 1 3.0841137697806431e-01 -1.0903915294013274e+01 -7.1963427061975018e+00 0 0 0
163 1 1 -1.7761630260207824e+00 -1.3791977037333957e+01 -4.2540481882451253e+00 0 0 0
164 1 1 -2.5567638344331129e+00 -1.5107420506277471e+01 -4.1818385227197261e+00 0 0 0
162 1 1 -6.5458376926018502e-01 -1.3794039797779952e+01 -3.2127678474776467e+00 0 0 0
161 1 1 2.4412483804287888e-01 -1.2575440804296889e+01 -3.4435995674489348e+00 0 0 0
133 1 1 1.6799851207909953e+00 -1.1422542035255695e+01 -7.6290606136621371e+00 0 0 0
132 1 1 2.7618766355787798e+00 -1.0891018033815236e+01 -6.6889831901787602e+00 0 0 0
131 1 1 4.0961954401101366e+00 -1.1544673480062364e+01 -7.0411653218122687e+00 0 0 0
130 1 1 5.2334375466175302e+00 -1.0828469904291318e+01 -6.3151056457885062e+00 0 0 0
129 1 1 6.5272625810733267e+00 -1.1637937479415783e+01 -6.4332626476116985e+00 0 0 0
125 1 1 1.1397128672265119e+01 -1.1548563705328711e+01 -5.5802203445787555e+00 0 0 0
127 1 1 8.9753754791704949e+00 -1.1603503927772202e+01 -5.9204048514914085e+00 0 0 0
126 1 1 1.0131548497827296e+01 -1.0704909187446397e+01 -5.4949829917815656e+00 0 0 0
128 1 1 7.6733469672740071e+00 -1.0809920372860077e+01 -5.8580564834289213e+00 0 0 0
242 1 1 1.6135313694852080e+01 -8.9915328017598526e+00 -7.7174264828266352e+00 0 0 0
241 1 1 1.6949909517811768e+01 -1.0286269846266435e+01 -7.6834889869298202e+00 0 0 0
124 1 1 1.2629280069824588e+01 -1.0671249591923427e+01 -5.3863508174622510e+00 0 0 0
123 1 1 1.2642073824429161e+01 -1.0095083828145803e+01 -3.9695459023327828e+00 0 0 0
122 1 1 1.4033254010031037e+01 -9.4990993253946101e+00 -3.7519409734038689e+00 0 0 0
76 1 1 1.9360147113796209e+01 -1.4612359473758147e+01 -8.5295142388085559e+00 0 0 0
77 1 1 1.7963227264515773e+01 -1.4501633409348365e+01 -9.1545757153126459e+00 0 0 0
345 1 1 -1.4397561574680102e+01 -7.1933104181046090e+00 -1.2066794199762434e+01 0 0 0
344 1 1 -1.2975354643034137e+01 -6.9485178025296008e+00 -1.1565837928044793e+01 0 0 0
192 1 1 -1.2780308622134354e+01 -7.2847163554820540e+00 -1.6217571046830415e+01 0 0 0
190 1 1 -1.0957513162611502e+01 -7.8793183894378842e+00 -1.4761275551809938e+01 0 0 0
314 1 1 -6.7026679403776086e+00 -6.1605918251061027e+00 -1.5961574001011591e+01 0 0 0
330 1 1 -9.9891147779930591e+00 -4.0873768873762870e+00 -1.3583796423457784e+01 0 0 0
328 1 1 -8.3469014085780131e+00 -4.4091368592118840e+00 -1.1751854675534954e+01 0 0 0
329 1 1 -9.8019280934211324e+00 -4.6169940306093480e+00 -1.2165246739169703e+01 0 0 0
188 1 1 -9.3908307903457526e+00 -8.6026982629861166e+00 -1.3048173249629393e+01 0 0 0
266 1 1 2.1696366019191125e+00 -6.7136315829149851e+00 -1.1675864480333754e+01 0 0 0
310 1 1 -3.3611014747748200e+00 -6.0941236160063497e+00 -1.2262560160636067e+01 0 0 0
308 1 1 -1.7398606457083083e+00 -6.0767872792163047e+00 -1.0375101408800827e+01 0 0 0
312 1 1 -5.0323479132813844e+00 -6.1431060604076393e+00 -1.4106918448727420e+01 0 0 0
313 1 1 -5.6253753701572258e+00 -5.3365758608033644e+00 -1.5259515209516731e+01 0 0 0
309 1 1 -2.3812933688710345e+00 -5.2271295224298768e+00 -1.1470154355547468e+01 0 0 0
311 1 1 -4.0264966790036318e+00 -5.2636012904088858e+00 -1.3362121577197648e+01 0 0 0
260 1 1 6.9038997335917287e+00 -7.2848045886047004e+00 -7.0551087051280952e+00 0 0 0
261 1 1 6.3194255049910879e+00 -6.8694213784140032e+00 -8.4074192670898356e+00 0 0 0
263 1 1 4.9882527430888963e+00 -5.1203349713377193e+00 -9.6188821546338836e+00 0 0 0
264 1 1 3.8949969944500182e+00 -6.1059928697935746e+00 -1.0018044273830547e+01 0 0 0
265 1 1 3.3027639100174078e+00 -5.7376238245869473e+00 -1.1372963489110330e+01 0 0 0
262 1 1 5.5811067726070007e+00 -5.5353722132508807e+00 -8.2689886476442211e+00 0 0 0
307 1 1 -7.9838286789724933e-01 -5.2518539222433205e+00 -9.4951641910315665e+00 0 0 0
292 1 1 5.0023835604629703e+00 -2.5826779152902262e+00 -5.4160630176984164e+00 0 0 0
250 1 1 9.6246161229909077e+00 -4.9964239432366142e+00 -9.7739330390744144e+00 0 0 0
258 1 1 8.6168819357029989e+00 -6.6875414146346586e+00 -5.3036510148470875e+00 0 0 0
247 1 1 1.2156650964088499e+01 -5.7075149189917198e+00 -9.0786958728635732e+00 0 0 0
248 1 1 1.1119332277575062e+01 -6.8279557276553859e+00 -9.0718545333931360e+00 0 0 0
256 1 1 1.0483383501541404e+01 -6.0708953252473137e+00 -3.7417903636417797e+00 0 0 0
259 1 1 7.8479255901544178e+00 -6.2012634047758084e+00 -6.5356328940521706e+00 0 0 0
257 1 1 9.5535118756011315e+00 -5.5656386585378499e+00 -4.8483762659484881e+00 0 0 0
245 1 1 1.4175767582080518e+01 -7.1722919707078034e+00 -9.1748508911773747e+00 0 0 0
243 1 1 1.6432740893462423e+01 -8.2555045022486127e+00 -9.0255276844276366e+00 0 0 0
244 1 1 1.5676722371785786e+01 -6.9299198138689775e+00 -9.0200980631049390e+00 0 0 0
246 1 1 1.3435918583109164e+01 -6.1150071887367901e+00 -8.3512596204253029e+00 0 0 0
272 1 1 1.4212481456041679e+01 -2.6695332289912201e+00 -6.9912042698767998e+00 0 0 0
273 1 1 1.3893865262927413e+01 -1.3918342939503887e+00 -6.2151669800998803e+00 0 0 0
274 1 1 1.2412801042168738e+01 -1.4880040342836409e+00 -5.8928174716328989e+00 0 0 0
271 1 1 1.5592278427326136e+01 -2.6181291219780078e+00 -7.6410008299978358e+00 0 0 0
810 1 1 -2.0832830634838878e+01 -6.7615311456365390e+00 -1.6886699179390405e+01 0 0 0
809 1 1 -1.9908422947157309e+01 -5.5769953703154158e+00 -1.6588142243729706e+01 0 0 0
449 1 1 -1.4208458782742175e+01 -4.1462712137796345e+00 -9.0086791068884331e+00 0 0 0
690 1 1 -1.3923503845495141e+01 -2.8234984670166909e+00 -1.5601341181607342e+01 0 0 0
450 1 1 -1.5431126158193557e+01 -4.8099267612902565e+00 -8.3864536575662427e+00 0 0 0
808 1 1 -1.9396133988135276e+01 -5.6135926227738722e+00 -1.5141077618090442e+01 0 0 0
807 1 1 -1.8534571606010402e+01 -4.3692174404280095e+00 -1.4917102146664906e+01 0 0 0
806 1 1 -1.8166882867683356e+01 -4.2403141082419609e+00 -1.3436543855351992e+01 0 0 0
804 1 1 -1.7171391730337412e+01 -2.6610943182496740e+00 -1.1755605269833428e+01 0 0 0
426 1 1 -7.2326290106819293e+00 -4.0939005100317871e-01 -1.4946348045182642e+01 0 0 0
688 1 1 -1.2695118426369291e+01 -1.5137751592917894e+00 -1.3879914912593989e+01 0 0 0
428 1 1 -8.5178626150653329e+00 4.7944447262288747e-01 -1.6901341835127859e+01 0 0 0
429 1 1 -9.3357162142073484e+00 1.6812295449167891e+00 -1.7379109992429775e+01 0 0 0
427 1 1 -7.8981595490000203e+00 8.2326611332664612e-01 -1.5547731985172909e+01 0 0 0
686 1 1 -1.1297999038142450e+01 -5.1079632260803720e-01 -1.2040846373806794e+01 0 0 0
685 1 1 -9.8645885928651360e+00 -1.0406057940328850e-01 -1.1673951750888445e+01 0 0 0
300 1 1 -8.4432955402970222e-01 -7.0276796284820620e-01 -1.3342511513784181e+01 0 0 0
298 1 1 7.3984466127554782e-01 -1.2707958328086519e+00 -1.1439065252504992e+01 0 0 0
299 1 1 -1.1965156599835325e-01 -1.8540088317973868e-01 -1.2098053317567651e+01 0 0 0
297 1 1 1.2186881813036052e+00 -7.4576216827676944e-01 -1.0080361418092377e+01 0 0 0
425 1 1 -6.5220653857807491e+00 1.0732013340927438e-02 -1.3662560128541191e+01 0 0 0
424 1 1 -5.9364922547478223e+00 -1.2335937277359150e+00 -1.2998590943011742e+01 0 0 0
423 1 1 -5.0916049285026475e+00 -7.4416704531030575e-01 -1.1831969274553323e+01 0 0 0
557 1 1 -3.9848106560938525e+00 3.3997184074434657e+00 -1.2396668802952814e+01 0 0 0
556 1 1 -2.6858538403113847e+00 3.8995674118299846e+00 -1.1764120895447693e+01 0 0 0
283 1 1 4.3919063660542186e+00 3.2365202242217634e+00 -7.4505289568155249e+00 0 0 0
296 1 1 2.2326811103067001e+00 -1.7036232288597191e+00 -9.4547325387132943e+00 0 0 0
294 1 1 3.6901673576699423e+00 -2.0849099482649649e+00 -7.4487385057661903e+00 0 0 0
295 1 1 2.6943087838331152e+00 -1.1299023211150967e+00 -8.1116286437573457e+00 0 0 0
293 1 1 3.9323394671576750e+00 -1.6625696999633846e+00 -5.9979125721192368e+00 0 0 0
284 1 1 3.3355223920735497e+00 4.3239873429323055e+00 -7.6583230763754919e+00 0 0 0
282 1 1 4.1542576794071557e+00 2.4266688394522618e+00 -6.1793609385763659e+00 0 0 0
281 1 1 5.4817696380775587e+00 1.8139969374889517e+00 -5.7062342300436413e+00 0 0 0
278 1 1 8.1853693883785894e+00 -6.3715067945367565e-01 -6.9484039211132753e+00 0 0 0
280 1 1 6.1831181808812694e+00 9.2960480745868779e-01 -6.7452232870302318e+00 0 0 0
276 1 1 1.0282232308549005e+01 -1.9428785149345913e+00 -7.1697262519169733e+00 0 0 0
277 1 1 9.6707393984015440e+00 -6.7551980562598857e-01 -6.5885286997115706e+00 0 0 0
279 1 1 7.5015309782340438e+00 4.4878332202288362e-01 -6.1209576773714325e+00 0 0 0
390 1 1 1.6260047044822279e+01 -2.9988938928429576e-01 -2.6304581375308835e+00 0 0 0
389 1 1 1.6872557891131549e+01 -1.5857883649231113e+00 -2.0693634793158324e+00 0 0 0
275 1 1 1.1793866081513585e+01 -1.7729344287036213e+00 -7.2563978691962916e+00 0 0 0
611 1 1 2.2973589927926248e+01 -7.7817703198670642e+00 -1.8336118906939767e+00 0 0 0
612 1 1 2.2383695536315230e+01 -6.4554967898131110e+00 -2.3120332543235804e+00 0 0 0
915 1 1 -2.4783720155742987e+01 -6.3456285752799459e+00 -1.5016343662909591e+01 0 0 0
914 1 1 -2.4131364883545224e+01 -5.0108601821913012e+00 -1.4645330121432515e+01 0 0 0
913 1 1 -2.3346389158865477e+01 -5.1876011244003379e+00 -1.3342145454297103e+01 0 0 0
912 1 1 -2.2699178097030206e+01 -3.8565057091401229e+00 -1.2949891768101015e+01 0 0 0
911 1 1 -2.2037091951484207e+01 -4.0070675243249951e+00 -1.1581724986809011e+01 0 0 0
910 1 1 -2.1476700223103432e+01 -2.6545997836707684e+00 -1.1144159773984072e+01 0 0 0
805 1 1 -1.7278172905541332e+01 -3.0091609098543088e+00 -1.3246751065002911e+01 0 0 0
562 1 1 -8.9527243331326858e+00 6.1294881266290275e+00 -1.4946295161845679e+01 0 0 0
563 1 1 -1.0225961382746727e+01 5.8692813343315251e+00 -1.5748022844148551e+01 0 0 0
689 1 1 -1.2627297725190825e+01 -2.0665697951816711e+00 -1.5307606153775946e+01 0 0 0
795 1 1 -9.8804183521647317e+00 5.0407318124726501e+00 -1.0709339569438306e+01 0 0 0
687 1 1 -1.1404372928820955e+01 -7.5506262380930167e-01 -1.3550640942290173e+01 0 0 0
794 1 1 -9.1231156909203541e+00 4.6037145945105138e+00 -9.4506637537396330e+00 0 0 0
793 1 1 -7.6386332703707147e+00 4.9497068439652168e+00 -9.5995653111643406e+00 0 0 0
561 1 1 -8.2136087282357515e+00 4.8602734335492528e+00 -1.4546436090629829e+01 0 0 0
560 1 1 -6.8623362980722398e+00 5.3071737060620521e+00 -1.3994644854525294e+01 0 0 0
541 1 1 -7.4079272452405966e+00 8.2545933959935169e+00 -1.1242291123182383e+01 0 0 0
791 1 1 -5.3256554142435526e+00 4.7017584966601689e+00 -8.6731087632816184e+00 0 0 0
559 1 1 -6.1066439840496791e+00 4.0936451778736682e+00 -1.3472851149436892e+01 0 0 0
558 1 1 -4.7402716068581512e+00 4.5802431750359105e+00 -1.2997929378170927e+01 0 0 0
405 1 1 8.4894011860107028e+00 4.3010564384564276e+00 -6.2103986764794961e+00 0 0 0
499 1 1 5.8298696570870376e+00 9.1935606723424925e+00 -8.9402815763628176e+00 0 0 0
628 1 1 6.2501572212598724e+00 4.7098514599863890e+00 -1.9034017098643830e+00 0 0 0
285 1 1 3.9152451217433928e+00 5.6516254601470450e+00 -7.1648268283939842e+00 0 0 0
630 1 1 3.9694842208551577e+00 3.9774035471237852e+00 -2.5718518218708617e+00 0 0 0
629 1 1 5.1659830645050917e+00 4.8463865233863004e+00 -2.9762373241890039e+00 0 0 0
403 1 1 9.3870940587426617e+00 3.1944352478570295e+00 -4.1809590189495616e+00 0 0 0
404 1 1 9.6267961132986457e+00 3.4427865410848852e+00 -5.6627581396943967e+00 0 0 0
402 1 1 1.0431452859890605e+01 2.2120176042098123e+00 -3.6755642320652342e+00 0 0 0
497 1 1 7.0003732767867746e+00 7.8463964286247574e+00 -1.0738583437894910e+01 0 0 0
727 1 1 1.6172719503523616e+01 3.3016072732677628e+00 -7.6368437488661556e+00 0 0 0
734 1 1 2.1049204442217608e+01 -2.2767108078332399e-01 -4.4905366811151310e+00 0 0 0
732 1 1 1.9794402155151907e+01 -5.5895281382129269e-01 -6.5701042415703270e+00 0 0 0
733 1 1 1.9639925024710060e+01 -2.5834805818070095e-01 -5.0766596477326829e+00 0 0 0
731 1 1 1.8428233732599175e+01 -5.5388821240075714e-01 -7.2405843219609913e+00 0 0 0
730 1 1 1.7924077052541882e+01 8.7467678143621441e-01 -7.4321898716613077e+00 0 0 0
549 1 1 -1.3095533322844084e+01 1.5270277197851229e+01 -1.5315603043536122e+01 0 0 0
548 1 1 -1.2558350975281275e+01 1.4830467728834947e+01 -1.3942781410470509e+01 0 0 0
547 1 1 -1.2149013179348859e+01 1.3351505542933481e+01 -1.3916971261491664e+01 0 0 0
546 1 1 -1.1318610820193419e+01 1.3033603114195138e+01 -1.2657917146811826e+01 0 0 0
545 1 1 -1.0813575951885147e+01 1.1586032701185808e+01 -1.2746641212490971e+01 0 0 0
544 1 1 -9.9114557630970292e+00 1.1191745144957430e+01 -1.1567589693138583e+01 0 0 0
505 1 1 3.8313733029997010e-01 1.2159993822723585e+01 -6.3392686603172415e+00 0 0 0
506 1 1 -7.8886669035028234e-01 1.3129597418238561e+01 -6.2458570398982829e+00 0 0 0
508 1 1 -2.2479804835097639e+00 1.1100466251306855e+01 -6.4149764044540376e+00 0 0 0
507 1 1 -1.9188366369605880e+00 1.2467951594249712e+01 -7.0346398360868925e+00 0 0 0
543 1 1 -9.1317194385776119e+00 9.9280563248771188e+00 -1.1962196473415602e+01 0 0 0
542 1 1 -8.2986547602149621e+00 9.4114619132994548e+00 -1.0789572427362000e+01 0 0 0
509 1 1 -3.2964296724699977e+00 1.0381279426320255e+01 -7.2749846479596343e+00 0 0 0
510 1 1 -4.0799457263941967e+00 9.3272485157347944e+00 -6.4843061751544404e+00 0 0 0
503 1 1 2.7641787400101379e+00 1.1767308704163931e+01 -5.8509752661118490e+00 0 0 0
502 1 1 3.1873912921775585e+00 1.1511197095118199e+01 -7.2928549595365659e+00 0 0 0
504 1 1 1.6535299131242951e+00 1.2810854702454122e+01 -5.8202673996270669e+00 0 0 0
500 1 1 4.6371433826058954e+00 1.0140970649810832e+01 -8.7645574700892688e+00 0 0 0
501 1 1 4.3658606433151910e+00 1.0530842387666127e+01 -7.3071924764174341e+00 0 0 0
750 1 1 9.5995150345590545e+00 9.0409911050948111e+00 -7.1016866680737465e+00 0 0 0
748 1 1 1.0832308292249834e+01 6.8036537538453956e+00 -7.0960270584181657e+00 0 0 0
747 1 1 1.1504539424553123e+01 6.7101120821883526e+00 -5.7195308884892064e+00 0 0 0
746 1 1 1.2601368536003207e+01 5.6337946385531907e+00 -5.6967843028552068e+00 0 0 0
745 1 1 1.3433244900811950e+01 5.7828157277576508e+00 -4.4215665616968671e+00 0 0 0
627 1 1 7.5128325253878927e+00 5.4894422829946521e+00 -2.2707193647455561e+00 0 0 0
744 1 1 1.4493148732807903e+01 4.6796767535281560e+00 -4.3492565246565569e+00 0 0 0
722 1 1 1.7547967600994085e+01 9.3300195060239801e+00 -8.7032228478189211e+00 0 0 0
721 1 1 1.6216558967172368e+01 9.9698236955510424e+00 -9.0992354369716253e+00 0 0 0
725 1 1 1.6402271204239717e+01 5.8042912431355944e+00 -7.5650656468062003e+00 0 0 0
724 1 1 1.6529985936114571e+01 7.0343019615409901e+00 -8.4679421966993900e+00 0 0 0
743 1 1 1.5557271764270716e+01 5.0567099432202056e+00 -3.3131497489229034e+00 0 0 0
723 1 1 1.7288140046795469e+01 8.1576913177178909e+00 -7.7527429594730322e+00 0 0 0
742 1 1 1.6581821759186525e+01 3.9249611900789461e+00 -3.1464064038250967e+00 0 0 0
550 1 1 -1.3341086198424833e+01 1.6780946389889124e+01 -1.5207368658895309e+01 0 0 0
969 1 1 -7.2780462158241548e+00 1.1652156152267125e+01 -7.8043298182955532e+00 0 0 0
968 1 1 -7.7763152464018042e+00 1.1353760772493445e+01 -6.3864796818149969e+00 0 0 0
967 1 1 -8.7628298677752632e+00 1.0182857136416878e+01 -6.4235173085138797e+00 0 0 0
965 1 1 -1.0359573989763391e+01 1.1232006686340341e+01 -4.8131386429989469e+00 0 0 0
966 1 1 -9.4287270289255183e+00 1.0039944725396630e+01 -5.0519325185708865e+00 0 0 0
962 1 1 -9.2254313682929343e+00 1.3148139923381223e+01 -2.8809950577449968e+00 0 0 0
970 1 1 -6.2917449741687896e+00 1.2822145257765321e+01 -7.7878756896350296e+00 0 0 0
1033 1 1 1.6980209372386248e+01 1.0235413571223901e+01 -1.7447567659871261e+01 0 0 0
1035 1 1 1.6436366784657430e+01 1.2123254148682101e+01 -1.5916359236258746e+01 0 0 0
1034 1 1 1.7545524465095539e+01 1.1170396300824109e+01 -1.6375158048981291e+01 0 0 0
961 1 1 -7.8170806400580801e+00 1.3446549958789248e+01 -2.3665205272117262e+00 0 0 0
150 1 1 -2.1617858176989451e+00 -2.2808375299991585e+01 1.7169354995374597e+00 0 0 0
74 1 1 4.6005724252602924e+00 -2.4123225849137562e+01 -6.5345440406883810e+00 0 0 0
73 1 1 5.2307808058076475e+00 -2.4067749309044743e+01 -7.9248380807153787e+00 0 0 0
71 1 1 6.6481495489252680e+00 -2.2673189505051038e+01 -9.4495143886085309e+00 0 0 0
72 1 1 5.9358352426655081e+00 -2.2721860573142482e+01 -8.0992442603258645e+00 0 0 0
75 1 1 5.7146072861330310e+00 -2.4132354693014751e+01 -5.4864783145470675e+00 0 0 0
70 1 1 7.8791381562311216e+00 -2.3578356135828784e+01 -9.4309655882905332e+00 0 0 0
69 1 1 8.5503454590515915e+00 -2.3521281554890656e+01 -1.0804845208531638e+01 0 0 0
68 1 1 9.8613048105953069e+00 -2.4309001487296619e+01 -1.0791345536043170e+01 0 0 0
119 1 1 -1.6900842277862850e+01 -2.1135674808586511e+01 -7.4226961737434465e+00 0 0 0
120 1 1 -1.7107444693935687e+01 -2.2019352106029142e+01 -8.6494997418028134e+00 0 0 0
224 1 1 -2.0693757709119247e+01 -1.8063717757325250e+01 -7.3986840156558742e+00 0 0 0
223 1 1 -1.9215926058209423e+01 -1.8380085266186860e+01 -7.6337549144082253e+00 0 0 0
118 1 1 -1.7358508905967110e+01 -2.1851639681283007e+01 -6.1550306742562704e+00 0 0 0
117 1 1 -1.7106572623554420e+01 -2.0949936138346253e+01 -4.9386250816117503e+00 0 0 0
116 1 1 -1.5645102498380426e+01 -2.0491007340503209e+01 -4.9707720806090734e+00 0 0 0
149 1 1 -1.7243421829076020e+00 -2.1409231644767306e+01 1.2861405682736269e+00 0 0 0
148 1 1 -4.6315008578512362e-01 -2.1017803668257784e+01 2.0491682560488975e+00 0 0 0
147 1 1 -2.8836615314261849e-02 -1.9636105482893647e+01 1.5757844305368387e+00 0 0 0
180 1 1 -4.6196665208351106e+00 -1.8376132353066225e+01 3.9012396045982847e+00 0 0 0
179 1 1 -3.1698618160585390e+00 -1.7960637367153907e+01 3.6569969436013885e+00 0 0 0
177 1 1 -1.7232404523107050e+00 -1.6131354249860827e+01 2.7891489667975016e+00 0 0 0
178 1 1 -3.1547372845949226e+00 -1.6566298236813381e+01 3.0500605804666598e+00 0 0 0
143 1 1 3.5744700680870771e+00 -1.6340799017675458e+01 1.5497110838748220e+00 0 0 0
146 1 1 1.2518249056256536e+00 -1.9246704588846196e+01 2.3037869586927577e+00 0 0 0
145 1 1 1.7261466332431041e+00 -1.7929573115892374e+01 1.7023632458360645e+00 0 0 0
144 1 1 3.0625960997305484e+00 -1.7550716805798558e+01 2.3190893877401813e+00 0 0 0
10 1 1 6.3577301431659308e+00 -1.9427671467383590e+01 -9.9202563847340741e-01 0 0 0
142 1 1 4.9943533233777373e+00 -1.6024653923329282e+01 1.9949879590464157e+00 0 0 0
141 1 1 5.4934957993147258e+00 -1.4942122599320179e+01 1.0407626055657637e+00 0 0 0
4 1 1 1.1722781860291576e+01 -1.8171230059646881e+01 2.6953299522623588e+00 0 0 0
8 1 1 8.7619440604466803e+00 -1.9404667003895376e+01 -2.4573546213222031e-01 0 0 0
6 1 1 9.4343729229232736e+00 -1.8943361333188822e+01 2.1045413162306126e+00 0 0 0
5 1 1 1.0560195113229511e+01 -1.7973723376410888e+01 1.7236945260447349e+00 0 0 0
9 1 1 7.7779620575929300e+00 -1.8974072124662850e+01 -1.3350208340471674e+00 0 0 0
7 1 1 8.3031381023537847e+00 -1.8822247130602118e+01 1.0877368113486661e+00 0 0 0
80 1 1 1.5768049643759838e+01 -1.4374906213736999e+01 -5.9841326945722386e+00 0 0 0
78 1 1 1.6887590981330881e+01 -1.4972075251830951e+01 -8.1675996421810986e+00 0 0 0
701 1 1 -2.1810652916081377e+01 -1.8490485078365239e+01 -1.1447023171507606e+01 0 0 0
700 1 1 -2.0861719372984037e+01 -1.7359518619182879e+01 -1.1846149680118746e+01 0 0 0
699 1 1 -2.1017209976135838e+01 -1.6200612926819424e+01 -1.0862122698359531e+01 0 0 0
222 1 1 -1.8438694862407825e+01 -1.7097180590066039e+01 -7.9217851478845454e+00 0 0 0
221 1 1 -1.7075948928918429e+01 -1.7408047599245599e+01 -8.5497614377500035e+00 0 0 0
220 1 1 -1.5938689610153062e+01 -1.7624504973881194e+01 -7.5438155831118934e+00 0 0 0
219 1 1 -1.5537323531055449e+01 -1.6294585608414657e+01 -6.9118109811883208e+00 0 0 0
218 1 1 -1.4033479845532796e+01 -1.6285440272402859e+01 -6.6176903593437117e+00 0 0 0
698 1 1 -1.9879853255498851e+01 -1.5191257393193283e+01 -1.1055217607153857e+01 0 0 0
217 1 1 -1.3846126011240967e+01 -1.6350489490516878e+01 -5.1038614123461450e+00 0 0 0
203 1 1 -1.0173044461895337e+01 -1.3182938291387721e+01 -7.6275845418859483e+00 0 0 0
204 1 1 -1.1256549534629309e+01 -1.2599013498249121e+01 -8.5363721277813447e+00 0 0 0
206 1 1 -1.1743946719415243e+01 -1.0913385589909510e+01 -1.0309373718013298e+01 0 0 0
205 1 1 -1.0676811167388808e+01 -1.1442058564312802e+01 -9.3482217196576372e+00 0 0 0
202 1 1 -9.8594933497967947e+00 -1.2264052322076303e+01 -6.4407818869335252e+00 0 0 0