LAMMPS (11 Aug 2017)
OMP_NUM_THREADS environment is not set. Defaulting to 1 thread. (../comm.cpp:90)
  using 1 OpenMP thread(s) per MPI task
fix atomify all atomify


# Initialization
units		real
boundary	f f f
atom_style	molecular
log 		/Users/niko/Desktop/VSCode/simulation-UHMW-PE-adhesion/lammps/log/log_sim_1kA.txt
