LAMMPS data file. CGCMM style. atom_style full generated by VMD/TopoTools v1.8 on Sat Mar 02 15:35:55 MSK 2024

 12 atoms
 11 bonds
 10 angles
 9 dihedrals
 0 impropers
 1 atom types
 1 bond types
 1 angle types
 1 dihedral types
 0 improper types
 -9.214700 9.214700  xlo xhi
 -2.238500 2.238500  ylo yhi
 -1.650000 1.650000  zlo zhi

# Pair Coeffs
#
# 1  A

# Bond Coeffs
#
# 1  A-A

# Angle Coeffs
#
# 1  A-A-A

# Dihedral Coeffs
#
# 1  A-A-A-A

 Masses

 1 12.000000 # A

 Atoms # full

1 1 1 6.877000 -0.328000 -0.000000 # A 
2 1 1 5.613000 0.535000 0.000000 # A 
3 1 1 4.379000 -0.369000 -0.000000 # A 
4 1 1 3.115000 0.493000 0.000000 # A 
5 1 1 1.881000 -0.411000 -0.000000 # A 
6 1 1 0.617000 0.452000 0.000000 # A 
7 1 1 -0.617000 -0.452000 0.000000 # A 
8 1 1 -1.881000 0.411000 -0.000000 # A 
9 1 1 -3.115000 -0.493000 0.000000 # A 
10 1 1 -4.379000 0.369000 -0.000000 # A 
11 1 1 -5.613000 -0.535000 0.000000 # A 
12 1 1 -6.877000 0.328000 -0.000000 # A 

 Bonds

1 1 1 2
2 1 2 3
3 1 3 4
4 1 4 5
5 1 5 6
6 1 6 7
7 1 7 8
8 1 8 9
9 1 9 10
10 1 10 11
11 1 11 12

 Angles

1 1 1 2 3
2 1 2 3 4
3 1 3 4 5
4 1 4 5 6
5 1 5 6 7
6 1 6 7 8
7 1 7 8 9
8 1 8 9 10
9 1 9 10 11
10 1 10 11 12

 Dihedrals

1 1 1 2 3 4
2 1 2 3 4 5
3 1 3 4 5 6
4 1 4 5 6 7
5 1 5 6 7 8
6 1 6 7 8 9
7 1 7 8 9 10
8 1 8 9 10 11
9 1 9 10 11 12

