LAMMPS data file. CGCMM style. atom_style full generated by VMD/TopoTools v1.8 on Sat Mar 02 17:30:42 MSK 2024

 1200 atoms
 1120 bonds
 1040 angles
 960 dihedrals
 0 impropers
 1 atom types
 1 bond types
 1 angle types
 1 dihedral types
 0 improper types
-11.489500 11.489500  xlo xhi
-23.527066 23.585933  ylo yhi
-14.960000 14.960000  zlo zhi

# Pair Coeffs
#
# 1  A

# Bond Coeffs
#
# 1  A-A

# Angle Coeffs
#
# 1  A-A-A

# Dihedral Coeffs
#
# 1  A-A-A-A

 Masses

 1 14.02 # A

 Atoms # full

1 1 1 8.745000 -21.612917 -13.090000 # A 
2 1 1 7.495000 -20.729916 -13.090000 # A 
3 1 1 6.246000 -21.612917 -13.090000 # A 
4 1 1 4.997000 -20.729916 -13.090000 # A 
5 1 1 3.748000 -21.612917 -13.090000 # A 
6 1 1 2.498000 -20.729916 -13.090000 # A 
7 1 1 1.249000 -21.612917 -13.090000 # A 
8 1 1 -0.000000 -20.729916 -13.090000 # A 
9 1 1 -1.249000 -21.612917 -13.090000 # A 
10 1 1 -2.498000 -20.729916 -13.090000 # A 
11 1 1 -3.748000 -21.612917 -13.090000 # A 
12 1 1 -4.997000 -20.729916 -13.090000 # A 
13 1 1 -6.246000 -21.612917 -13.090000 # A 
14 1 1 -7.495000 -20.729916 -13.090000 # A 
15 1 1 -8.745000 -21.612917 -13.090000 # A 
16 1 1 8.745000 -21.612917 -9.350000 # A 
17 1 1 7.495000 -20.729916 -9.350000 # A 
18 1 1 6.246000 -21.612917 -9.350000 # A 
19 1 1 4.997000 -20.729916 -9.350000 # A 
20 1 1 3.748000 -21.612917 -9.350000 # A 
21 1 1 2.498000 -20.729916 -9.350000 # A 
22 1 1 1.249000 -21.612917 -9.350000 # A 
23 1 1 -0.000000 -20.729916 -9.350000 # A 
24 1 1 -1.249000 -21.612917 -9.350000 # A 
25 1 1 -2.498000 -20.729916 -9.350000 # A 
26 1 1 -3.748000 -21.612917 -9.350000 # A 
27 1 1 -4.997000 -20.729916 -9.350000 # A 
28 1 1 -6.246000 -21.612917 -9.350000 # A 
29 1 1 -7.495000 -20.729916 -9.350000 # A 
30 1 1 -8.745000 -21.612917 -9.350000 # A 
31 1 1 8.745000 -21.612917 -5.610000 # A 
32 1 1 7.495000 -20.729916 -5.610000 # A 
33 1 1 6.246000 -21.612917 -5.610000 # A 
34 1 1 4.997000 -20.729916 -5.610000 # A 
35 1 1 3.748000 -21.612917 -5.610000 # A 
36 1 1 2.498000 -20.729916 -5.610000 # A 
37 1 1 1.249000 -21.612917 -5.610000 # A 
38 1 1 -0.000000 -20.729916 -5.610000 # A 
39 1 1 -1.249000 -21.612917 -5.610000 # A 
40 1 1 -2.498000 -20.729916 -5.610000 # A 
41 1 1 -3.748000 -21.612917 -5.610000 # A 
42 1 1 -4.997000 -20.729916 -5.610000 # A 
43 1 1 -6.246000 -21.612917 -5.610000 # A 
44 1 1 -7.495000 -20.729916 -5.610000 # A 
45 1 1 -8.745000 -21.612917 -5.610000 # A 
46 1 1 8.745000 -21.612917 -1.870000 # A 
47 1 1 7.495000 -20.729916 -1.870000 # A 
48 1 1 6.246000 -21.612917 -1.870000 # A 
49 1 1 4.997000 -20.729916 -1.870000 # A 
50 1 1 3.748000 -21.612917 -1.870000 # A 
51 1 1 2.498000 -20.729916 -1.870000 # A 
52 1 1 1.249000 -21.612917 -1.870000 # A 
53 1 1 -0.000000 -20.729916 -1.870000 # A 
54 1 1 -1.249000 -21.612917 -1.870000 # A 
55 1 1 -2.498000 -20.729916 -1.870000 # A 
56 1 1 -3.748000 -21.612917 -1.870000 # A 
57 1 1 -4.997000 -20.729916 -1.870000 # A 
58 1 1 -6.246000 -21.612917 -1.870000 # A 
59 1 1 -7.495000 -20.729916 -1.870000 # A 
60 1 1 -8.745000 -21.612917 -1.870000 # A 
61 1 1 8.745000 -21.612917 1.870000 # A 
62 1 1 7.495000 -20.729916 1.870000 # A 
63 1 1 6.246000 -21.612917 1.870000 # A 
64 1 1 4.997000 -20.729916 1.870000 # A 
65 1 1 3.748000 -21.612917 1.870000 # A 
66 1 1 2.498000 -20.729916 1.870000 # A 
67 1 1 1.249000 -21.612917 1.870000 # A 
68 1 1 -0.000000 -20.729916 1.870000 # A 
69 1 1 -1.249000 -21.612917 1.870000 # A 
70 1 1 -2.498000 -20.729916 1.870000 # A 
71 1 1 -3.748000 -21.612917 1.870000 # A 
72 1 1 -4.997000 -20.729916 1.870000 # A 
73 1 1 -6.246000 -21.612917 1.870000 # A 
74 1 1 -7.495000 -20.729916 1.870000 # A 
75 1 1 -8.745000 -21.612917 1.870000 # A 
76 1 1 8.745000 -21.612917 5.610000 # A 
77 1 1 7.495000 -20.729916 5.610000 # A 
78 1 1 6.246000 -21.612917 5.610000 # A 
79 1 1 4.997000 -20.729916 5.610000 # A 
80 1 1 3.748000 -21.612917 5.610000 # A 
81 1 1 2.498000 -20.729916 5.610000 # A 
82 1 1 1.249000 -21.612917 5.610000 # A 
83 1 1 -0.000000 -20.729916 5.610000 # A 
84 1 1 -1.249000 -21.612917 5.610000 # A 
85 1 1 -2.498000 -20.729916 5.610000 # A 
86 1 1 -3.748000 -21.612917 5.610000 # A 
87 1 1 -4.997000 -20.729916 5.610000 # A 
88 1 1 -6.246000 -21.612917 5.610000 # A 
89 1 1 -7.495000 -20.729916 5.610000 # A 
90 1 1 -8.745000 -21.612917 5.610000 # A 
91 1 1 8.745000 -21.612917 9.350000 # A 
92 1 1 7.495000 -20.729916 9.350000 # A 
93 1 1 6.246000 -21.612917 9.350000 # A 
94 1 1 4.997000 -20.729916 9.350000 # A 
95 1 1 3.748000 -21.612917 9.350000 # A 
96 1 1 2.498000 -20.729916 9.350000 # A 
97 1 1 1.249000 -21.612917 9.350000 # A 
98 1 1 -0.000000 -20.729916 9.350000 # A 
99 1 1 -1.249000 -21.612917 9.350000 # A 
100 1 1 -2.498000 -20.729916 9.350000 # A 
101 1 1 -3.748000 -21.612917 9.350000 # A 
102 1 1 -4.997000 -20.729916 9.350000 # A 
103 1 1 -6.246000 -21.612917 9.350000 # A 
104 1 1 -7.495000 -20.729916 9.350000 # A 
105 1 1 -8.745000 -21.612917 9.350000 # A 
106 1 1 8.745000 -21.612917 13.090000 # A 
107 1 1 7.495000 -20.729916 13.090000 # A 
108 1 1 6.246000 -21.612917 13.090000 # A 
109 1 1 4.997000 -20.729916 13.090000 # A 
110 1 1 3.748000 -21.612917 13.090000 # A 
111 1 1 2.498000 -20.729916 13.090000 # A 
112 1 1 1.249000 -21.612917 13.090000 # A 
113 1 1 -0.000000 -20.729916 13.090000 # A 
114 1 1 -1.249000 -21.612917 13.090000 # A 
115 1 1 -2.498000 -20.729916 13.090000 # A 
116 1 1 -3.748000 -21.612917 13.090000 # A 
117 1 1 -4.997000 -20.729916 13.090000 # A 
118 1 1 -6.246000 -21.612917 13.090000 # A 
119 1 1 -7.495000 -20.729916 13.090000 # A 
120 1 1 -8.745000 -21.612917 13.090000 # A 
121 1 1 8.745000 -16.901617 -13.090000 # A 
122 1 1 7.495000 -16.018616 -13.090000 # A 
123 1 1 6.246000 -16.901617 -13.090000 # A 
124 1 1 4.997000 -16.018616 -13.090000 # A 
125 1 1 3.748000 -16.901617 -13.090000 # A 
126 1 1 2.498000 -16.018616 -13.090000 # A 
127 1 1 1.249000 -16.901617 -13.090000 # A 
128 1 1 -0.000000 -16.018616 -13.090000 # A 
129 1 1 -1.249000 -16.901617 -13.090000 # A 
130 1 1 -2.498000 -16.018616 -13.090000 # A 
131 1 1 -3.748000 -16.901617 -13.090000 # A 
132 1 1 -4.997000 -16.018616 -13.090000 # A 
133 1 1 -6.246000 -16.901617 -13.090000 # A 
134 1 1 -7.495000 -16.018616 -13.090000 # A 
135 1 1 -8.745000 -16.901617 -13.090000 # A 
136 1 1 8.745000 -16.901617 -9.350000 # A 
137 1 1 7.495000 -16.018616 -9.350000 # A 
138 1 1 6.246000 -16.901617 -9.350000 # A 
139 1 1 4.997000 -16.018616 -9.350000 # A 
140 1 1 3.748000 -16.901617 -9.350000 # A 
141 1 1 2.498000 -16.018616 -9.350000 # A 
142 1 1 1.249000 -16.901617 -9.350000 # A 
143 1 1 -0.000000 -16.018616 -9.350000 # A 
144 1 1 -1.249000 -16.901617 -9.350000 # A 
145 1 1 -2.498000 -16.018616 -9.350000 # A 
146 1 1 -3.748000 -16.901617 -9.350000 # A 
147 1 1 -4.997000 -16.018616 -9.350000 # A 
148 1 1 -6.246000 -16.901617 -9.350000 # A 
149 1 1 -7.495000 -16.018616 -9.350000 # A 
150 1 1 -8.745000 -16.901617 -9.350000 # A 
151 1 1 8.745000 -16.901617 -5.610000 # A 
152 1 1 7.495000 -16.018616 -5.610000 # A 
153 1 1 6.246000 -16.901617 -5.610000 # A 
154 1 1 4.997000 -16.018616 -5.610000 # A 
155 1 1 3.748000 -16.901617 -5.610000 # A 
156 1 1 2.498000 -16.018616 -5.610000 # A 
157 1 1 1.249000 -16.901617 -5.610000 # A 
158 1 1 -0.000000 -16.018616 -5.610000 # A 
159 1 1 -1.249000 -16.901617 -5.610000 # A 
160 1 1 -2.498000 -16.018616 -5.610000 # A 
161 1 1 -3.748000 -16.901617 -5.610000 # A 
162 1 1 -4.997000 -16.018616 -5.610000 # A 
163 1 1 -6.246000 -16.901617 -5.610000 # A 
164 1 1 -7.495000 -16.018616 -5.610000 # A 
165 1 1 -8.745000 -16.901617 -5.610000 # A 
166 1 1 8.745000 -16.901617 -1.870000 # A 
167 1 1 7.495000 -16.018616 -1.870000 # A 
168 1 1 6.246000 -16.901617 -1.870000 # A 
169 1 1 4.997000 -16.018616 -1.870000 # A 
170 1 1 3.748000 -16.901617 -1.870000 # A 
171 1 1 2.498000 -16.018616 -1.870000 # A 
172 1 1 1.249000 -16.901617 -1.870000 # A 
173 1 1 -0.000000 -16.018616 -1.870000 # A 
174 1 1 -1.249000 -16.901617 -1.870000 # A 
175 1 1 -2.498000 -16.018616 -1.870000 # A 
176 1 1 -3.748000 -16.901617 -1.870000 # A 
177 1 1 -4.997000 -16.018616 -1.870000 # A 
178 1 1 -6.246000 -16.901617 -1.870000 # A 
179 1 1 -7.495000 -16.018616 -1.870000 # A 
180 1 1 -8.745000 -16.901617 -1.870000 # A 
181 1 1 8.745000 -16.901617 1.870000 # A 
182 1 1 7.495000 -16.018616 1.870000 # A 
183 1 1 6.246000 -16.901617 1.870000 # A 
184 1 1 4.997000 -16.018616 1.870000 # A 
185 1 1 3.748000 -16.901617 1.870000 # A 
186 1 1 2.498000 -16.018616 1.870000 # A 
187 1 1 1.249000 -16.901617 1.870000 # A 
188 1 1 -0.000000 -16.018616 1.870000 # A 
189 1 1 -1.249000 -16.901617 1.870000 # A 
190 1 1 -2.498000 -16.018616 1.870000 # A 
191 1 1 -3.748000 -16.901617 1.870000 # A 
192 1 1 -4.997000 -16.018616 1.870000 # A 
193 1 1 -6.246000 -16.901617 1.870000 # A 
194 1 1 -7.495000 -16.018616 1.870000 # A 
195 1 1 -8.745000 -16.901617 1.870000 # A 
196 1 1 8.745000 -16.901617 5.610000 # A 
197 1 1 7.495000 -16.018616 5.610000 # A 
198 1 1 6.246000 -16.901617 5.610000 # A 
199 1 1 4.997000 -16.018616 5.610000 # A 
200 1 1 3.748000 -16.901617 5.610000 # A 
201 1 1 2.498000 -16.018616 5.610000 # A 
202 1 1 1.249000 -16.901617 5.610000 # A 
203 1 1 -0.000000 -16.018616 5.610000 # A 
204 1 1 -1.249000 -16.901617 5.610000 # A 
205 1 1 -2.498000 -16.018616 5.610000 # A 
206 1 1 -3.748000 -16.901617 5.610000 # A 
207 1 1 -4.997000 -16.018616 5.610000 # A 
208 1 1 -6.246000 -16.901617 5.610000 # A 
209 1 1 -7.495000 -16.018616 5.610000 # A 
210 1 1 -8.745000 -16.901617 5.610000 # A 
211 1 1 8.745000 -16.901617 9.350000 # A 
212 1 1 7.495000 -16.018616 9.350000 # A 
213 1 1 6.246000 -16.901617 9.350000 # A 
214 1 1 4.997000 -16.018616 9.350000 # A 
215 1 1 3.748000 -16.901617 9.350000 # A 
216 1 1 2.498000 -16.018616 9.350000 # A 
217 1 1 1.249000 -16.901617 9.350000 # A 
218 1 1 -0.000000 -16.018616 9.350000 # A 
219 1 1 -1.249000 -16.901617 9.350000 # A 
220 1 1 -2.498000 -16.018616 9.350000 # A 
221 1 1 -3.748000 -16.901617 9.350000 # A 
222 1 1 -4.997000 -16.018616 9.350000 # A 
223 1 1 -6.246000 -16.901617 9.350000 # A 
224 1 1 -7.495000 -16.018616 9.350000 # A 
225 1 1 -8.745000 -16.901617 9.350000 # A 
226 1 1 8.745000 -16.901617 13.090000 # A 
227 1 1 7.495000 -16.018616 13.090000 # A 
228 1 1 6.246000 -16.901617 13.090000 # A 
229 1 1 4.997000 -16.018616 13.090000 # A 
230 1 1 3.748000 -16.901617 13.090000 # A 
231 1 1 2.498000 -16.018616 13.090000 # A 
232 1 1 1.249000 -16.901617 13.090000 # A 
233 1 1 -0.000000 -16.018616 13.090000 # A 
234 1 1 -1.249000 -16.901617 13.090000 # A 
235 1 1 -2.498000 -16.018616 13.090000 # A 
236 1 1 -3.748000 -16.901617 13.090000 # A 
237 1 1 -4.997000 -16.018616 13.090000 # A 
238 1 1 -6.246000 -16.901617 13.090000 # A 
239 1 1 -7.495000 -16.018616 13.090000 # A 
240 1 1 -8.745000 -16.901617 13.090000 # A 
241 1 1 8.745000 -12.190316 -13.090000 # A 
242 1 1 7.495000 -11.307317 -13.090000 # A 
243 1 1 6.246000 -12.190316 -13.090000 # A 
244 1 1 4.997000 -11.307317 -13.090000 # A 
245 1 1 3.748000 -12.190316 -13.090000 # A 
246 1 1 2.498000 -11.307317 -13.090000 # A 
247 1 1 1.249000 -12.190316 -13.090000 # A 
248 1 1 -0.000000 -11.307317 -13.090000 # A 
249 1 1 -1.249000 -12.190316 -13.090000 # A 
250 1 1 -2.498000 -11.307317 -13.090000 # A 
251 1 1 -3.748000 -12.190316 -13.090000 # A 
252 1 1 -4.997000 -11.307317 -13.090000 # A 
253 1 1 -6.246000 -12.190316 -13.090000 # A 
254 1 1 -7.495000 -11.307317 -13.090000 # A 
255 1 1 -8.745000 -12.190316 -13.090000 # A 
256 1 1 8.745000 -12.190316 -9.350000 # A 
257 1 1 7.495000 -11.307317 -9.350000 # A 
258 1 1 6.246000 -12.190316 -9.350000 # A 
259 1 1 4.997000 -11.307317 -9.350000 # A 
260 1 1 3.748000 -12.190316 -9.350000 # A 
261 1 1 2.498000 -11.307317 -9.350000 # A 
262 1 1 1.249000 -12.190316 -9.350000 # A 
263 1 1 -0.000000 -11.307317 -9.350000 # A 
264 1 1 -1.249000 -12.190316 -9.350000 # A 
265 1 1 -2.498000 -11.307317 -9.350000 # A 
266 1 1 -3.748000 -12.190316 -9.350000 # A 
267 1 1 -4.997000 -11.307317 -9.350000 # A 
268 1 1 -6.246000 -12.190316 -9.350000 # A 
269 1 1 -7.495000 -11.307317 -9.350000 # A 
270 1 1 -8.745000 -12.190316 -9.350000 # A 
271 1 1 8.745000 -12.190316 -5.610000 # A 
272 1 1 7.495000 -11.307317 -5.610000 # A 
273 1 1 6.246000 -12.190316 -5.610000 # A 
274 1 1 4.997000 -11.307317 -5.610000 # A 
275 1 1 3.748000 -12.190316 -5.610000 # A 
276 1 1 2.498000 -11.307317 -5.610000 # A 
277 1 1 1.249000 -12.190316 -5.610000 # A 
278 1 1 -0.000000 -11.307317 -5.610000 # A 
279 1 1 -1.249000 -12.190316 -5.610000 # A 
280 1 1 -2.498000 -11.307317 -5.610000 # A 
281 1 1 -3.748000 -12.190316 -5.610000 # A 
282 1 1 -4.997000 -11.307317 -5.610000 # A 
283 1 1 -6.246000 -12.190316 -5.610000 # A 
284 1 1 -7.495000 -11.307317 -5.610000 # A 
285 1 1 -8.745000 -12.190316 -5.610000 # A 
286 1 1 8.745000 -12.190316 -1.870000 # A 
287 1 1 7.495000 -11.307317 -1.870000 # A 
288 1 1 6.246000 -12.190316 -1.870000 # A 
289 1 1 4.997000 -11.307317 -1.870000 # A 
290 1 1 3.748000 -12.190316 -1.870000 # A 
291 1 1 2.498000 -11.307317 -1.870000 # A 
292 1 1 1.249000 -12.190316 -1.870000 # A 
293 1 1 -0.000000 -11.307317 -1.870000 # A 
294 1 1 -1.249000 -12.190316 -1.870000 # A 
295 1 1 -2.498000 -11.307317 -1.870000 # A 
296 1 1 -3.748000 -12.190316 -1.870000 # A 
297 1 1 -4.997000 -11.307317 -1.870000 # A 
298 1 1 -6.246000 -12.190316 -1.870000 # A 
299 1 1 -7.495000 -11.307317 -1.870000 # A 
300 1 1 -8.745000 -12.190316 -1.870000 # A 
301 1 1 8.745000 -12.190316 1.870000 # A 
302 1 1 7.495000 -11.307317 1.870000 # A 
303 1 1 6.246000 -12.190316 1.870000 # A 
304 1 1 4.997000 -11.307317 1.870000 # A 
305 1 1 3.748000 -12.190316 1.870000 # A 
306 1 1 2.498000 -11.307317 1.870000 # A 
307 1 1 1.249000 -12.190316 1.870000 # A 
308 1 1 -0.000000 -11.307317 1.870000 # A 
309 1 1 -1.249000 -12.190316 1.870000 # A 
310 1 1 -2.498000 -11.307317 1.870000 # A 
311 1 1 -3.748000 -12.190316 1.870000 # A 
312 1 1 -4.997000 -11.307317 1.870000 # A 
313 1 1 -6.246000 -12.190316 1.870000 # A 
314 1 1 -7.495000 -11.307317 1.870000 # A 
315 1 1 -8.745000 -12.190316 1.870000 # A 
316 1 1 8.745000 -12.190316 5.610000 # A 
317 1 1 7.495000 -11.307317 5.610000 # A 
318 1 1 6.246000 -12.190316 5.610000 # A 
319 1 1 4.997000 -11.307317 5.610000 # A 
320 1 1 3.748000 -12.190316 5.610000 # A 
321 1 1 2.498000 -11.307317 5.610000 # A 
322 1 1 1.249000 -12.190316 5.610000 # A 
323 1 1 -0.000000 -11.307317 5.610000 # A 
324 1 1 -1.249000 -12.190316 5.610000 # A 
325 1 1 -2.498000 -11.307317 5.610000 # A 
326 1 1 -3.748000 -12.190316 5.610000 # A 
327 1 1 -4.997000 -11.307317 5.610000 # A 
328 1 1 -6.246000 -12.190316 5.610000 # A 
329 1 1 -7.495000 -11.307317 5.610000 # A 
330 1 1 -8.745000 -12.190316 5.610000 # A 
331 1 1 8.745000 -12.190316 9.350000 # A 
332 1 1 7.495000 -11.307317 9.350000 # A 
333 1 1 6.246000 -12.190316 9.350000 # A 
334 1 1 4.997000 -11.307317 9.350000 # A 
335 1 1 3.748000 -12.190316 9.350000 # A 
336 1 1 2.498000 -11.307317 9.350000 # A 
337 1 1 1.249000 -12.190316 9.350000 # A 
338 1 1 -0.000000 -11.307317 9.350000 # A 
339 1 1 -1.249000 -12.190316 9.350000 # A 
340 1 1 -2.498000 -11.307317 9.350000 # A 
341 1 1 -3.748000 -12.190316 9.350000 # A 
342 1 1 -4.997000 -11.307317 9.350000 # A 
343 1 1 -6.246000 -12.190316 9.350000 # A 
344 1 1 -7.495000 -11.307317 9.350000 # A 
345 1 1 -8.745000 -12.190316 9.350000 # A 
346 1 1 8.745000 -12.190316 13.090000 # A 
347 1 1 7.495000 -11.307317 13.090000 # A 
348 1 1 6.246000 -12.190316 13.090000 # A 
349 1 1 4.997000 -11.307317 13.090000 # A 
350 1 1 3.748000 -12.190316 13.090000 # A 
351 1 1 2.498000 -11.307317 13.090000 # A 
352 1 1 1.249000 -12.190316 13.090000 # A 
353 1 1 0.000000 -11.307317 13.090000 # A 
354 1 1 -1.249000 -12.190316 13.090000 # A 
355 1 1 -2.498000 -11.307317 13.090000 # A 
356 1 1 -3.748000 -12.190316 13.090000 # A 
357 1 1 -4.997000 -11.307317 13.090000 # A 
358 1 1 -6.246000 -12.190316 13.090000 # A 
359 1 1 -7.495000 -11.307317 13.090000 # A 
360 1 1 -8.745000 -12.190316 13.090000 # A 
361 1 1 8.745000 -7.479016 -13.090000 # A 
362 1 1 7.495000 -6.596016 -13.090000 # A 
363 1 1 6.246000 -7.479016 -13.090000 # A 
364 1 1 4.997000 -6.596016 -13.090000 # A 
365 1 1 3.748000 -7.479016 -13.090000 # A 
366 1 1 2.498000 -6.596016 -13.090000 # A 
367 1 1 1.249000 -7.479016 -13.090000 # A 
368 1 1 -0.000000 -6.596016 -13.090000 # A 
369 1 1 -1.249000 -7.479016 -13.090000 # A 
370 1 1 -2.498000 -6.596016 -13.090000 # A 
371 1 1 -3.748000 -7.479016 -13.090000 # A 
372 1 1 -4.997000 -6.596016 -13.090000 # A 
373 1 1 -6.246000 -7.479016 -13.090000 # A 
374 1 1 -7.495000 -6.596016 -13.090000 # A 
375 1 1 -8.745000 -7.479016 -13.090000 # A 
376 1 1 8.745000 -7.479016 -9.350000 # A 
377 1 1 7.495000 -6.596016 -9.350000 # A 
378 1 1 6.246000 -7.479016 -9.350000 # A 
379 1 1 4.997000 -6.596016 -9.350000 # A 
380 1 1 3.748000 -7.479016 -9.350000 # A 
381 1 1 2.498000 -6.596016 -9.350000 # A 
382 1 1 1.249000 -7.479016 -9.350000 # A 
383 1 1 -0.000000 -6.596016 -9.350000 # A 
384 1 1 -1.249000 -7.479016 -9.350000 # A 
385 1 1 -2.498000 -6.596016 -9.350000 # A 
386 1 1 -3.748000 -7.479016 -9.350000 # A 
387 1 1 -4.997000 -6.596016 -9.350000 # A 
388 1 1 -6.246000 -7.479016 -9.350000 # A 
389 1 1 -7.495000 -6.596016 -9.350000 # A 
390 1 1 -8.745000 -7.479016 -9.350000 # A 
391 1 1 8.745000 -7.479016 -5.610000 # A 
392 1 1 7.495000 -6.596016 -5.610000 # A 
393 1 1 6.246000 -7.479016 -5.610000 # A 
394 1 1 4.997000 -6.596016 -5.610000 # A 
395 1 1 3.748000 -7.479016 -5.610000 # A 
396 1 1 2.498000 -6.596016 -5.610000 # A 
397 1 1 1.249000 -7.479016 -5.610000 # A 
398 1 1 -0.000000 -6.596016 -5.610000 # A 
399 1 1 -1.249000 -7.479016 -5.610000 # A 
400 1 1 -2.498000 -6.596016 -5.610000 # A 
401 1 1 -3.748000 -7.479016 -5.610000 # A 
402 1 1 -4.997000 -6.596016 -5.610000 # A 
403 1 1 -6.246000 -7.479016 -5.610000 # A 
404 1 1 -7.495000 -6.596016 -5.610000 # A 
405 1 1 -8.745000 -7.479016 -5.610000 # A 
406 1 1 8.745000 -7.479016 -1.870000 # A 
407 1 1 7.495000 -6.596016 -1.870000 # A 
408 1 1 6.246000 -7.479016 -1.870000 # A 
409 1 1 4.997000 -6.596016 -1.870000 # A 
410 1 1 3.748000 -7.479016 -1.870000 # A 
411 1 1 2.498000 -6.596016 -1.870000 # A 
412 1 1 1.249000 -7.479016 -1.870000 # A 
413 1 1 -0.000000 -6.596016 -1.870000 # A 
414 1 1 -1.249000 -7.479016 -1.870000 # A 
415 1 1 -2.498000 -6.596016 -1.870000 # A 
416 1 1 -3.748000 -7.479016 -1.870000 # A 
417 1 1 -4.997000 -6.596016 -1.870000 # A 
418 1 1 -6.246000 -7.479016 -1.870000 # A 
419 1 1 -7.495000 -6.596016 -1.870000 # A 
420 1 1 -8.745000 -7.479016 -1.870000 # A 
421 1 1 8.745000 -7.479016 1.870000 # A 
422 1 1 7.495000 -6.596016 1.870000 # A 
423 1 1 6.246000 -7.479016 1.870000 # A 
424 1 1 4.997000 -6.596016 1.870000 # A 
425 1 1 3.748000 -7.479016 1.870000 # A 
426 1 1 2.498000 -6.596016 1.870000 # A 
427 1 1 1.249000 -7.479016 1.870000 # A 
428 1 1 -0.000000 -6.596016 1.870000 # A 
429 1 1 -1.249000 -7.479016 1.870000 # A 
430 1 1 -2.498000 -6.596016 1.870000 # A 
431 1 1 -3.748000 -7.479016 1.870000 # A 
432 1 1 -4.997000 -6.596016 1.870000 # A 
433 1 1 -6.246000 -7.479016 1.870000 # A 
434 1 1 -7.495000 -6.596016 1.870000 # A 
435 1 1 -8.745000 -7.479016 1.870000 # A 
436 1 1 8.745000 -7.479016 5.610000 # A 
437 1 1 7.495000 -6.596016 5.610000 # A 
438 1 1 6.246000 -7.479016 5.610000 # A 
439 1 1 4.997000 -6.596016 5.610000 # A 
440 1 1 3.748000 -7.479016 5.610000 # A 
441 1 1 2.498000 -6.596016 5.610000 # A 
442 1 1 1.249000 -7.479016 5.610000 # A 
443 1 1 -0.000000 -6.596016 5.610000 # A 
444 1 1 -1.249000 -7.479016 5.610000 # A 
445 1 1 -2.498000 -6.596016 5.610000 # A 
446 1 1 -3.748000 -7.479016 5.610000 # A 
447 1 1 -4.997000 -6.596016 5.610000 # A 
448 1 1 -6.246000 -7.479016 5.610000 # A 
449 1 1 -7.495000 -6.596016 5.610000 # A 
450 1 1 -8.745000 -7.479016 5.610000 # A 
451 1 1 8.745000 -7.479016 9.350000 # A 
452 1 1 7.495000 -6.596016 9.350000 # A 
453 1 1 6.246000 -7.479016 9.350000 # A 
454 1 1 4.997000 -6.596016 9.350000 # A 
455 1 1 3.748000 -7.479016 9.350000 # A 
456 1 1 2.498000 -6.596016 9.350000 # A 
457 1 1 1.249000 -7.479016 9.350000 # A 
458 1 1 0.000000 -6.596016 9.350000 # A 
459 1 1 -1.249000 -7.479016 9.350000 # A 
460 1 1 -2.498000 -6.596016 9.350000 # A 
461 1 1 -3.748000 -7.479016 9.350000 # A 
462 1 1 -4.997000 -6.596016 9.350000 # A 
463 1 1 -6.246000 -7.479016 9.350000 # A 
464 1 1 -7.495000 -6.596016 9.350000 # A 
465 1 1 -8.745000 -7.479016 9.350000 # A 
466 1 1 8.745000 -7.479016 13.090000 # A 
467 1 1 7.495000 -6.596016 13.090000 # A 
468 1 1 6.246000 -7.479016 13.090000 # A 
469 1 1 4.997000 -6.596016 13.090000 # A 
470 1 1 3.748000 -7.479016 13.090000 # A 
471 1 1 2.498000 -6.596016 13.090000 # A 
472 1 1 1.249000 -7.479016 13.090000 # A 
473 1 1 0.000000 -6.596016 13.090000 # A 
474 1 1 -1.249000 -7.479016 13.090000 # A 
475 1 1 -2.498000 -6.596016 13.090000 # A 
476 1 1 -3.748000 -7.479016 13.090000 # A 
477 1 1 -4.997000 -6.596016 13.090000 # A 
478 1 1 -6.246000 -7.479016 13.090000 # A 
479 1 1 -7.495000 -6.596016 13.090000 # A 
480 1 1 -8.745000 -7.479016 13.090000 # A 
481 1 1 8.745000 -2.767717 -13.090000 # A 
482 1 1 7.495000 -1.884717 -13.090000 # A 
483 1 1 6.246000 -2.767717 -13.090000 # A 
484 1 1 4.997000 -1.884717 -13.090000 # A 
485 1 1 3.748000 -2.767717 -13.090000 # A 
486 1 1 2.498000 -1.884717 -13.090000 # A 
487 1 1 1.249000 -2.767717 -13.090000 # A 
488 1 1 -0.000000 -1.884717 -13.090000 # A 
489 1 1 -1.249000 -2.767717 -13.090000 # A 
490 1 1 -2.498000 -1.884717 -13.090000 # A 
491 1 1 -3.748000 -2.767717 -13.090000 # A 
492 1 1 -4.997000 -1.884717 -13.090000 # A 
493 1 1 -6.246000 -2.767717 -13.090000 # A 
494 1 1 -7.495000 -1.884717 -13.090000 # A 
495 1 1 -8.745000 -2.767717 -13.090000 # A 
496 1 1 8.745000 -2.767717 -9.350000 # A 
497 1 1 7.495000 -1.884717 -9.350000 # A 
498 1 1 6.246000 -2.767717 -9.350000 # A 
499 1 1 4.997000 -1.884717 -9.350000 # A 
500 1 1 3.748000 -2.767717 -9.350000 # A 
501 1 1 2.498000 -1.884717 -9.350000 # A 
502 1 1 1.249000 -2.767717 -9.350000 # A 
503 1 1 -0.000000 -1.884717 -9.350000 # A 
504 1 1 -1.249000 -2.767717 -9.350000 # A 
505 1 1 -2.498000 -1.884717 -9.350000 # A 
506 1 1 -3.748000 -2.767717 -9.350000 # A 
507 1 1 -4.997000 -1.884717 -9.350000 # A 
508 1 1 -6.246000 -2.767717 -9.350000 # A 
509 1 1 -7.495000 -1.884717 -9.350000 # A 
510 1 1 -8.745000 -2.767717 -9.350000 # A 
511 1 1 8.745000 -2.767717 -5.610000 # A 
512 1 1 7.495000 -1.884717 -5.610000 # A 
513 1 1 6.246000 -2.767717 -5.610000 # A 
514 1 1 4.997000 -1.884717 -5.610000 # A 
515 1 1 3.748000 -2.767717 -5.610000 # A 
516 1 1 2.498000 -1.884717 -5.610000 # A 
517 1 1 1.249000 -2.767717 -5.610000 # A 
518 1 1 -0.000000 -1.884717 -5.610000 # A 
519 1 1 -1.249000 -2.767717 -5.610000 # A 
520 1 1 -2.498000 -1.884717 -5.610000 # A 
521 1 1 -3.748000 -2.767717 -5.610000 # A 
522 1 1 -4.997000 -1.884717 -5.610000 # A 
523 1 1 -6.246000 -2.767717 -5.610000 # A 
524 1 1 -7.495000 -1.884717 -5.610000 # A 
525 1 1 -8.745000 -2.767717 -5.610000 # A 
526 1 1 8.745000 -2.767717 -1.870000 # A 
527 1 1 7.495000 -1.884717 -1.870000 # A 
528 1 1 6.246000 -2.767717 -1.870000 # A 
529 1 1 4.997000 -1.884717 -1.870000 # A 
530 1 1 3.748000 -2.767717 -1.870000 # A 
531 1 1 2.498000 -1.884717 -1.870000 # A 
532 1 1 1.249000 -2.767717 -1.870000 # A 
533 1 1 -0.000000 -1.884717 -1.870000 # A 
534 1 1 -1.249000 -2.767717 -1.870000 # A 
535 1 1 -2.498000 -1.884717 -1.870000 # A 
536 1 1 -3.748000 -2.767717 -1.870000 # A 
537 1 1 -4.997000 -1.884717 -1.870000 # A 
538 1 1 -6.246000 -2.767717 -1.870000 # A 
539 1 1 -7.495000 -1.884717 -1.870000 # A 
540 1 1 -8.745000 -2.767717 -1.870000 # A 
541 1 1 8.745000 -2.767717 1.870000 # A 
542 1 1 7.495000 -1.884717 1.870000 # A 
543 1 1 6.246000 -2.767717 1.870000 # A 
544 1 1 4.997000 -1.884717 1.870000 # A 
545 1 1 3.748000 -2.767717 1.870000 # A 
546 1 1 2.498000 -1.884717 1.870000 # A 
547 1 1 1.249000 -2.767717 1.870000 # A 
548 1 1 -0.000000 -1.884717 1.870000 # A 
549 1 1 -1.249000 -2.767717 1.870000 # A 
550 1 1 -2.498000 -1.884717 1.870000 # A 
551 1 1 -3.748000 -2.767717 1.870000 # A 
552 1 1 -4.997000 -1.884717 1.870000 # A 
553 1 1 -6.246000 -2.767717 1.870000 # A 
554 1 1 -7.495000 -1.884717 1.870000 # A 
555 1 1 -8.745000 -2.767717 1.870000 # A 
556 1 1 8.745000 -2.767717 5.610000 # A 
557 1 1 7.495000 -1.884717 5.610000 # A 
558 1 1 6.246000 -2.767717 5.610000 # A 
559 1 1 4.997000 -1.884717 5.610000 # A 
560 1 1 3.748000 -2.767717 5.610000 # A 
561 1 1 2.498000 -1.884717 5.610000 # A 
562 1 1 1.249000 -2.767717 5.610000 # A 
563 1 1 0.000000 -1.884717 5.610000 # A 
564 1 1 -1.249000 -2.767717 5.610000 # A 
565 1 1 -2.498000 -1.884717 5.610000 # A 
566 1 1 -3.748000 -2.767717 5.610000 # A 
567 1 1 -4.997000 -1.884717 5.610000 # A 
568 1 1 -6.246000 -2.767717 5.610000 # A 
569 1 1 -7.495000 -1.884717 5.610000 # A 
570 1 1 -8.745000 -2.767717 5.610000 # A 
571 1 1 8.745000 -2.767717 9.350000 # A 
572 1 1 7.495000 -1.884717 9.350000 # A 
573 1 1 6.246000 -2.767717 9.350000 # A 
574 1 1 4.997000 -1.884717 9.350000 # A 
575 1 1 3.748000 -2.767717 9.350000 # A 
576 1 1 2.498000 -1.884717 9.350000 # A 
577 1 1 1.249000 -2.767717 9.350000 # A 
578 1 1 0.000000 -1.884717 9.350000 # A 
579 1 1 -1.249000 -2.767717 9.350000 # A 
580 1 1 -2.498000 -1.884717 9.350000 # A 
581 1 1 -3.748000 -2.767717 9.350000 # A 
582 1 1 -4.997000 -1.884717 9.350000 # A 
583 1 1 -6.246000 -2.767717 9.350000 # A 
584 1 1 -7.495000 -1.884717 9.350000 # A 
585 1 1 -8.745000 -2.767717 9.350000 # A 
586 1 1 8.745000 -2.767717 13.090000 # A 
587 1 1 7.495000 -1.884717 13.090000 # A 
588 1 1 6.246000 -2.767717 13.090000 # A 
589 1 1 4.997000 -1.884717 13.090000 # A 
590 1 1 3.748000 -2.767717 13.090000 # A 
591 1 1 2.498000 -1.884717 13.090000 # A 
592 1 1 1.249000 -2.767717 13.090000 # A 
593 1 1 0.000000 -1.884717 13.090000 # A 
594 1 1 -1.249000 -2.767717 13.090000 # A 
595 1 1 -2.498000 -1.884717 13.090000 # A 
596 1 1 -3.748000 -2.767717 13.090000 # A 
597 1 1 -4.997000 -1.884717 13.090000 # A 
598 1 1 -6.246000 -2.767717 13.090000 # A 
599 1 1 -7.495000 -1.884717 13.090000 # A 
600 1 1 -8.745000 -2.767717 13.090000 # A 
601 1 1 8.745000 1.943583 -13.090000 # A 
602 1 1 7.495000 2.826583 -13.090000 # A 
603 1 1 6.246000 1.943583 -13.090000 # A 
604 1 1 4.997000 2.826583 -13.090000 # A 
605 1 1 3.748000 1.943583 -13.090000 # A 
606 1 1 2.498000 2.826583 -13.090000 # A 
607 1 1 1.249000 1.943583 -13.090000 # A 
608 1 1 -0.000000 2.826583 -13.090000 # A 
609 1 1 -1.249000 1.943583 -13.090000 # A 
610 1 1 -2.498000 2.826583 -13.090000 # A 
611 1 1 -3.748000 1.943583 -13.090000 # A 
612 1 1 -4.997000 2.826583 -13.090000 # A 
613 1 1 -6.246000 1.943583 -13.090000 # A 
614 1 1 -7.495000 2.826583 -13.090000 # A 
615 1 1 -8.745000 1.943583 -13.090000 # A 
616 1 1 8.745000 1.943583 -9.350000 # A 
617 1 1 7.495000 2.826583 -9.350000 # A 
618 1 1 6.246000 1.943583 -9.350000 # A 
619 1 1 4.997000 2.826583 -9.350000 # A 
620 1 1 3.748000 1.943583 -9.350000 # A 
621 1 1 2.498000 2.826583 -9.350000 # A 
622 1 1 1.249000 1.943583 -9.350000 # A 
623 1 1 -0.000000 2.826583 -9.350000 # A 
624 1 1 -1.249000 1.943583 -9.350000 # A 
625 1 1 -2.498000 2.826583 -9.350000 # A 
626 1 1 -3.748000 1.943583 -9.350000 # A 
627 1 1 -4.997000 2.826583 -9.350000 # A 
628 1 1 -6.246000 1.943583 -9.350000 # A 
629 1 1 -7.495000 2.826583 -9.350000 # A 
630 1 1 -8.745000 1.943583 -9.350000 # A 
631 1 1 8.745000 1.943583 -5.610000 # A 
632 1 1 7.495000 2.826583 -5.610000 # A 
633 1 1 6.246000 1.943583 -5.610000 # A 
634 1 1 4.997000 2.826583 -5.610000 # A 
635 1 1 3.748000 1.943583 -5.610000 # A 
636 1 1 2.498000 2.826583 -5.610000 # A 
637 1 1 1.249000 1.943583 -5.610000 # A 
638 1 1 -0.000000 2.826583 -5.610000 # A 
639 1 1 -1.249000 1.943583 -5.610000 # A 
640 1 1 -2.498000 2.826583 -5.610000 # A 
641 1 1 -3.748000 1.943583 -5.610000 # A 
642 1 1 -4.997000 2.826583 -5.610000 # A 
643 1 1 -6.246000 1.943583 -5.610000 # A 
644 1 1 -7.495000 2.826583 -5.610000 # A 
645 1 1 -8.745000 1.943583 -5.610000 # A 
646 1 1 8.745000 1.943583 -1.870000 # A 
647 1 1 7.495000 2.826583 -1.870000 # A 
648 1 1 6.246000 1.943583 -1.870000 # A 
649 1 1 4.997000 2.826583 -1.870000 # A 
650 1 1 3.748000 1.943583 -1.870000 # A 
651 1 1 2.498000 2.826583 -1.870000 # A 
652 1 1 1.249000 1.943583 -1.870000 # A 
653 1 1 0.000000 2.826583 -1.870000 # A 
654 1 1 -1.249000 1.943583 -1.870000 # A 
655 1 1 -2.498000 2.826583 -1.870000 # A 
656 1 1 -3.748000 1.943583 -1.870000 # A 
657 1 1 -4.997000 2.826583 -1.870000 # A 
658 1 1 -6.246000 1.943583 -1.870000 # A 
659 1 1 -7.495000 2.826583 -1.870000 # A 
660 1 1 -8.745000 1.943583 -1.870000 # A 
661 1 1 8.745000 1.943583 1.870000 # A 
662 1 1 7.495000 2.826583 1.870000 # A 
663 1 1 6.246000 1.943583 1.870000 # A 
664 1 1 4.997000 2.826583 1.870000 # A 
665 1 1 3.748000 1.943583 1.870000 # A 
666 1 1 2.498000 2.826583 1.870000 # A 
667 1 1 1.249000 1.943583 1.870000 # A 
668 1 1 0.000000 2.826583 1.870000 # A 
669 1 1 -1.249000 1.943583 1.870000 # A 
670 1 1 -2.498000 2.826583 1.870000 # A 
671 1 1 -3.748000 1.943583 1.870000 # A 
672 1 1 -4.997000 2.826583 1.870000 # A 
673 1 1 -6.246000 1.943583 1.870000 # A 
674 1 1 -7.495000 2.826583 1.870000 # A 
675 1 1 -8.745000 1.943583 1.870000 # A 
676 1 1 8.745000 1.943583 5.610000 # A 
677 1 1 7.495000 2.826583 5.610000 # A 
678 1 1 6.246000 1.943583 5.610000 # A 
679 1 1 4.997000 2.826583 5.610000 # A 
680 1 1 3.748000 1.943583 5.610000 # A 
681 1 1 2.498000 2.826583 5.610000 # A 
682 1 1 1.249000 1.943583 5.610000 # A 
683 1 1 0.000000 2.826583 5.610000 # A 
684 1 1 -1.249000 1.943583 5.610000 # A 
685 1 1 -2.498000 2.826583 5.610000 # A 
686 1 1 -3.748000 1.943583 5.610000 # A 
687 1 1 -4.997000 2.826583 5.610000 # A 
688 1 1 -6.246000 1.943583 5.610000 # A 
689 1 1 -7.495000 2.826583 5.610000 # A 
690 1 1 -8.745000 1.943583 5.610000 # A 
691 1 1 8.745000 1.943583 9.350000 # A 
692 1 1 7.495000 2.826583 9.350000 # A 
693 1 1 6.246000 1.943583 9.350000 # A 
694 1 1 4.997000 2.826583 9.350000 # A 