LAMMPS data file. CGCMM style. atom_style full generated by VMD/TopoTools v1.8 on Fri Mar 01 19:59:57 MSK 2024

 19000 atoms
 18800 bonds
 0 angles
 0 dihedrals
 0 impropers
 1 atom types
 1 bond types
 0 angle types
 0 dihedral types
 0 improper types
 -66.236500 66.235500  xlo xhi
 -21.522500 21.531501  ylo yhi
 -33.000000 33.000000  zlo zhi

# Pair Coeffs
#
# 1  A

# Bond Coeffs
#
# 1  A-A

# Angle Coeffs
#
# 1  A-A-A

# Dihedral Coeffs
#
# 1  A-A-A-A

 Masses

 1 12.000000 # A

 Atoms # full

1 1 1 58.714001 -19.796000 -31.350000 # A 
2 1 1 57.465000 -18.913000 -31.350000 # A 
3 1 1 56.216000 -19.797001 -31.350000 # A 
4 1 1 54.966000 -18.914000 -31.350000 # A 
5 1 1 53.716999 -19.797001 -31.350000 # A 
6 1 1 52.467999 -18.914000 -31.350000 # A 
7 1 1 51.219002 -19.798000 -31.350000 # A 
8 1 1 49.969002 -18.915001 -31.350000 # A 
9 1 1 48.720001 -19.799000 -31.350000 # A 
10 1 1 47.471001 -18.916000 -31.350000 # A 
11 1 1 46.222000 -19.799000 -31.350000 # A 
12 1 1 44.972000 -18.916000 -31.350000 # A 
13 1 1 43.723000 -19.799999 -31.350000 # A 
14 1 1 42.473999 -18.917000 -31.350000 # A 
15 1 1 41.224998 -19.801001 -31.350000 # A 
16 1 1 39.974998 -18.917999 -31.350000 # A 
17 1 1 38.726002 -19.801001 -31.350000 # A 
18 1 1 37.477001 -18.917999 -31.350000 # A 
19 1 1 36.228001 -19.802000 -31.350000 # A 
20 1 1 34.978001 -18.919001 -31.350000 # A 
21 1 1 33.729000 -19.802999 -31.350000 # A 
22 1 1 32.480000 -18.920000 -31.350000 # A 
23 1 1 31.231001 -19.802999 -31.350000 # A 
24 1 1 29.981001 -18.920000 -31.350000 # A 
25 1 1 28.732000 -19.804001 -31.350000 # A 
26 1 1 27.483000 -18.921000 -31.350000 # A 
27 1 1 26.233999 -19.805000 -31.350000 # A 
28 1 1 24.983999 -18.922001 -31.350000 # A 
29 1 1 23.735001 -19.805000 -31.350000 # A 
30 1 1 22.486000 -18.922001 -31.350000 # A 
31 1 1 21.237000 -19.806000 -31.350000 # A 
32 1 1 19.987000 -18.923000 -31.350000 # A 
33 1 1 18.738001 -19.806999 -31.350000 # A 
34 1 1 17.489000 -18.924000 -31.350000 # A 
35 1 1 16.240000 -19.806999 -31.350000 # A 
36 1 1 14.990000 -18.924000 -31.350000 # A 
37 1 1 13.741000 -19.808001 -31.350000 # A 
38 1 1 12.492000 -18.924999 -31.350000 # A 
39 1 1 11.243000 -19.809000 -31.350000 # A 
40 1 1 9.993000 -18.926001 -31.350000 # A 
41 1 1 8.744000 -19.809000 -31.350000 # A 
42 1 1 7.495000 -18.926001 -31.350000 # A 
43 1 1 6.246000 -19.809999 -31.350000 # A 
44 1 1 4.996000 -18.927000 -31.350000 # A 
45 1 1 3.747000 -19.811001 -31.350000 # A 
46 1 1 2.498000 -18.927999 -31.350000 # A 
47 1 1 1.249000 -19.811001 -31.350000 # A 
48 1 1 0.000000 -18.927999 -31.350000 # A 
49 1 1 -1.250000 -19.812000 -31.350000 # A 
50 1 1 -2.499000 -18.929001 -31.350000 # A 
51 1 1 -3.748000 -19.812000 -31.350000 # A 
52 1 1 -4.997000 -18.929001 -31.350000 # A 
53 1 1 -6.246000 -19.813000 -31.350000 # A 
54 1 1 -7.496000 -18.930000 -31.350000 # A 
55 1 1 -8.745000 -19.813999 -31.350000 # A 
56 1 1 -9.994000 -18.931000 -31.350000 # A 
57 1 1 -11.243000 -19.813999 -31.350000 # A 
58 1 1 -12.493000 -18.931000 -31.350000 # A 
59 1 1 -13.742000 -19.815001 -31.350000 # A 
60 1 1 -14.991000 -18.931999 -31.350000 # A 
61 1 1 -16.240000 -19.816000 -31.350000 # A 
62 1 1 -17.490000 -18.933001 -31.350000 # A 
63 1 1 -18.739000 -19.816000 -31.350000 # A 
64 1 1 -19.988001 -18.933001 -31.350000 # A 
65 1 1 -21.237000 -19.816999 -31.350000 # A 
66 1 1 -22.487000 -18.934000 -31.350000 # A 
67 1 1 -23.736000 -19.818001 -31.350000 # A 
68 1 1 -24.985001 -18.934999 -31.350000 # A 
69 1 1 -26.233999 -19.818001 -31.350000 # A 
70 1 1 -27.483999 -18.934999 -31.350000 # A 
71 1 1 -28.733000 -19.819000 -31.350000 # A 
72 1 1 -29.982000 -18.936001 -31.350000 # A 
73 1 1 -31.231001 -19.820000 -31.350000 # A 
74 1 1 -32.480999 -18.937000 -31.350000 # A 
75 1 1 -33.730000 -19.820000 -31.350000 # A 
76 1 1 -34.979000 -18.937000 -31.350000 # A 
77 1 1 -36.228001 -19.820999 -31.350000 # A 
78 1 1 -37.478001 -18.938000 -31.350000 # A 
79 1 1 -38.727001 -19.822001 -31.350000 # A 
80 1 1 -39.976002 -18.938999 -31.350000 # A 
81 1 1 -41.224998 -19.822001 -31.350000 # A 
82 1 1 -42.474998 -18.938999 -31.350000 # A 
83 1 1 -43.723999 -19.823000 -31.350000 # A 
84 1 1 -44.973000 -18.940001 -31.350000 # A 
85 1 1 -46.222000 -19.823999 -31.350000 # A 
86 1 1 -47.472000 -18.941000 -31.350000 # A 
87 1 1 -48.721001 -19.823999 -31.350000 # A 
88 1 1 -49.970001 -18.941000 -31.350000 # A 
89 1 1 -51.219002 -19.825001 -31.350000 # A 
90 1 1 -52.469002 -18.941999 -31.350000 # A 
91 1 1 -53.717999 -19.826000 -31.350000 # A 
92 1 1 -54.966999 -18.943001 -31.350000 # A 
93 1 1 -56.216000 -19.826000 -31.350000 # A 
94 1 1 -57.466000 -18.943001 -31.350000 # A 
95 1 1 -58.715000 -19.827000 -31.350000 # A 
96 1 1 58.714001 -19.796000 -28.049999 # A 
97 1 1 57.465000 -18.913000 -28.049999 # A 
98 1 1 56.216000 -19.797001 -28.049999 # A 
99 1 1 54.966000 -18.914000 -28.049999 # A 
100 1 1 53.716999 -19.797001 -28.049999 # A 
101 1 1 52.467999 -18.914000 -28.049999 # A 
102 1 1 51.219002 -19.798000 -28.049999 # A 
103 1 1 49.969002 -18.915001 -28.049999 # A 
104 1 1 48.720001 -19.799000 -28.049999 # A 
105 1 1 47.471001 -18.916000 -28.049999 # A 
106 1 1 46.222000 -19.799000 -28.049999 # A 
107 1 1 44.972000 -18.916000 -28.049999 # A 
108 1 1 43.723000 -19.799999 -28.049999 # A 
109 1 1 42.473999 -18.917000 -28.049999 # A 
110 1 1 41.224998 -19.801001 -28.049999 # A 
111 1 1 39.974998 -18.917999 -28.049999 # A 
112 1 1 38.726002 -19.801001 -28.049999 # A 
113 1 1 37.477001 -18.917999 -28.049999 # A 
114 1 1 36.228001 -19.802000 -28.049999 # A 
115 1 1 34.978001 -18.919001 -28.049999 # A 
116 1 1 33.729000 -19.802999 -28.049999 # A 
117 1 1 32.480000 -18.920000 -28.049999 # A 
118 1 1 31.231001 -19.802999 -28.049999 # A 
119 1 1 29.981001 -18.920000 -28.049999 # A 
120 1 1 28.732000 -19.804001 -28.049999 # A 
121 1 1 27.483000 -18.921000 -28.049999 # A 
122 1 1 26.233999 -19.805000 -28.049999 # A 
123 1 1 24.983999 -18.922001 -28.049999 # A 
124 1 1 23.735001 -19.805000 -28.049999 # A 
125 1 1 22.486000 -18.922001 -28.049999 # A 
126 1 1 21.237000 -19.806000 -28.049999 # A 
127 1 1 19.987000 -18.923000 -28.049999 # A 
128 1 1 18.738001 -19.806999 -28.049999 # A 
129 1 1 17.489000 -18.924000 -28.049999 # A 
130 1 1 16.240000 -19.806999 -28.049999 # A 
131 1 1 14.990000 -18.924000 -28.049999 # A 
132 1 1 13.741000 -19.808001 -28.049999 # A 
133 1 1 12.492000 -18.924999 -28.049999 # A 
134 1 1 11.243000 -19.809000 -28.049999 # A 
135 1 1 9.993000 -18.926001 -28.049999 # A 
136 1 1 8.744000 -19.809000 -28.049999 # A 
137 1 1 7.495000 -18.926001 -28.049999 # A 
138 1 1 6.246000 -19.809999 -28.049999 # A 
139 1 1 4.996000 -18.927000 -28.049999 # A 
140 1 1 3.747000 -19.811001 -28.049999 # A 
141 1 1 2.498000 -18.927999 -28.049999 # A 
142 1 1 1.249000 -19.811001 -28.049999 # A 
143 1 1 0.000000 -18.927999 -28.049999 # A 
144 1 1 -1.250000 -19.812000 -28.049999 # A 
145 1 1 -2.499000 -18.929001 -28.049999 # A 
146 1 1 -3.748000 -19.812000 -28.049999 # A 
147 1 1 -4.997000 -18.929001 -28.049999 # A 
148 1 1 -6.246000 -19.813000 -28.049999 # A 
149 1 1 -7.496000 -18.930000 -28.049999 # A 
150 1 1 -8.745000 -19.813999 -28.049999 # A 
151 1 1 -9.994000 -18.931000 -28.049999 # A 
152 1 1 -11.243000 -19.813999 -28.049999 # A 
153 1 1 -12.493000 -18.931000 -28.049999 # A 
154 1 1 -13.742000 -19.815001 -28.049999 # A 
155 1 1 -14.991000 -18.931999 -28.049999 # A 
156 1 1 -16.240000 -19.816000 -28.049999 # A 
157 1 1 -17.490000 -18.933001 -28.049999 # A 
158 1 1 -18.739000 -19.816000 -28.049999 # A 
159 1 1 -19.988001 -18.933001 -28.049999 # A 
160 1 1 -21.237000 -19.816999 -28.049999 # A 
161 1 1 -22.487000 -18.934000 -28.049999 # A 
162 1 1 -23.736000 -19.818001 -28.049999 # A 
163 1 1 -24.985001 -18.934999 -28.049999 # A 
164 1 1 -26.233999 -19.818001 -28.049999 # A 
165 1 1 -27.483999 -18.934999 -28.049999 # A 
166 1 1 -28.733000 -19.819000 -28.049999 # A 
167 1 1 -29.982000 -18.936001 -28.049999 # A 
168 1 1 -31.231001 -19.820000 -28.049999 # A 
169 1 1 -32.480999 -18.937000 -28.049999 # A 
170 1 1 -33.730000 -19.820000 -28.049999 # A 
171 1 1 -34.979000 -18.937000 -28.049999 # A 
172 1 1 -36.228001 -19.820999 -28.049999 # A 
173 1 1 -37.478001 -18.938000 -28.049999 # A 
174 1 1 -38.727001 -19.822001 -28.049999 # A 
175 1 1 -39.976002 -18.938999 -28.049999 # A 
176 1 1 -41.224998 -19.822001 -28.049999 # A 
177 1 1 -42.474998 -18.938999 -28.049999 # A 
178 1 1 -43.723999 -19.823000 -28.049999 # A 
179 1 1 -44.973000 -18.940001 -28.049999 # A 
180 1 1 -46.222000 -19.823999 -28.049999 # A 
181 1 1 -47.472000 -18.941000 -28.049999 # A 
182 1 1 -48.721001 -19.823999 -28.049999 # A 
183 1 1 -49.970001 -18.941000 -28.049999 # A 
184 1 1 -51.219002 -19.825001 -28.049999 # A 
185 1 1 -52.469002 -18.941999 -28.049999 # A 
186 1 1 -53.717999 -19.826000 -28.049999 # A 
187 1 1 -54.966999 -18.943001 -28.049999 # A 
188 1 1 -56.216000 -19.826000 -28.049999 # A 
189 1 1 -57.466000 -18.943001 -28.049999 # A 
190 1 1 -58.715000 -19.827000 -28.049999 # A 
191 1 1 58.714001 -19.796000 -24.750000 # A 
192 1 1 57.465000 -18.913000 -24.750000 # A 
193 1 1 56.216000 -19.797001 -24.750000 # A 
194 1 1 54.966000 -18.914000 -24.750000 # A 
195 1 1 53.716999 -19.797001 -24.750000 # A 
196 1 1 52.467999 -18.914000 -24.750000 # A 
197 1 1 51.219002 -19.798000 -24.750000 # A 
198 1 1 49.969002 -18.915001 -24.750000 # A 
199 1 1 48.720001 -19.799000 -24.750000 # A 
200 1 1 47.471001 -18.916000 -24.750000 # A 
201 1 1 46.222000 -19.799000 -24.750000 # A 
202 1 1 44.972000 -18.916000 -24.750000 # A 
203 1 1 43.723000 -19.799999 -24.750000 # A 
204 1 1 42.473999 -18.917000 -24.750000 # A 
205 1 1 41.224998 -19.801001 -24.750000 # A 
206 1 1 39.974998 -18.917999 -24.750000 # A 
207 1 1 38.726002 -19.801001 -24.750000 # A 
208 1 1 37.477001 -18.917999 -24.750000 # A 
209 1 1 36.228001 -19.802000 -24.750000 # A 
210 1 1 34.978001 -18.919001 -24.750000 # A 
211 1 1 33.729000 -19.802999 -24.750000 # A 
212 1 1 32.480000 -18.920000 -24.750000 # A 
213 1 1 31.231001 -19.802999 -24.750000 # A 
214 1 1 29.981001 -18.920000 -24.750000 # A 
215 1 1 28.732000 -19.804001 -24.750000 # A 
216 1 1 27.483000 -18.921000 -24.750000 # A 
217 1 1 26.233999 -19.805000 -24.750000 # A 
218 1 1 24.983999 -18.922001 -24.750000 # A 
219 1 1 23.735001 -19.805000 -24.750000 # A 
220 1 1 22.486000 -18.922001 -24.750000 # A 
221 1 1 21.237000 -19.806000 -24.750000 # A 
222 1 1 19.987000 -18.923000 -24.750000 # A 
223 1 1 18.738001 -19.806999 -24.750000 # A 
224 1 1 17.489000 -18.924000 -24.750000 # A 
225 1 1 16.240000 -19.806999 -24.750000 # A 
226 1 1 14.990000 -18.924000 -24.750000 # A 
227 1 1 13.741000 -19.808001 -24.750000 # A 
228 1 1 12.492000 -18.924999 -24.750000 # A 
229 1 1 11.243000 -19.809000 -24.750000 # A 
230 1 1 9.993000 -18.926001 -24.750000 # A 
231 1 1 8.744000 -19.809000 -24.750000 # A 
232 1 1 7.495000 -18.926001 -24.750000 # A 
233 1 1 6.246000 -19.809999 -24.750000 # A 
234 1 1 4.996000 -18.927000 -24.750000 # A 
235 1 1 3.747000 -19.811001 -24.750000 # A 
236 1 1 2.498000 -18.927999 -24.750000 # A 
237 1 1 1.249000 -19.811001 -24.750000 # A 
238 1 1 0.000000 -18.927999 -24.750000 # A 
239 1 1 -1.250000 -19.812000 -24.750000 # A 
240 1 1 -2.499000 -18.929001 -24.750000 # A 
241 1 1 -3.748000 -19.812000 -24.750000 # A 
242 1 1 -4.997000 -18.929001 -24.750000 # A 
243 1 1 -6.246000 -19.813000 -24.750000 # A 
244 1 1 -7.496000 -18.930000 -24.750000 # A 
245 1 1 -8.745000 -19.813999 -24.750000 # A 
246 1 1 -9.994000 -18.931000 -24.750000 # A 
247 1 1 -11.243000 -19.813999 -24.750000 # A 
248 1 1 -12.493000 -18.931000 -24.750000 # A 
249 1 1 -13.742000 -19.815001 -24.750000 # A 
250 1 1 -14.991000 -18.931999 -24.750000 # A 
251 1 1 -16.240000 -19.816000 -24.750000 # A 
252 1 1 -17.490000 -18.933001 -24.750000 # A 
253 1 1 -18.739000 -19.816000 -24.750000 # A 
254 1 1 -19.988001 -18.933001 -24.750000 # A 
255 1 1 -21.237000 -19.816999 -24.750000 # A 
256 1 1 -22.487000 -18.934000 -24.750000 # A 
257 1 1 -23.736000 -19.818001 -24.750000 # A 
258 1 1 -24.985001 -18.934999 -24.750000 # A 
259 1 1 -26.233999 -19.818001 -24.750000 # A 
260 1 1 -27.483999 -18.934999 -24.750000 # A 
261 1 1 -28.733000 -19.819000 -24.750000 # A 
262 1 1 -29.982000 -18.936001 -24.750000 # A 
263 1 1 -31.231001 -19.820000 -24.750000 # A 
264 1 1 -32.480999 -18.937000 -24.750000 # A 
265 1 1 -33.730000 -19.820000 -24.750000 # A 
266 1 1 -34.979000 -18.937000 -24.750000 # A 
267 1 1 -36.228001 -19.820999 -24.750000 # A 
268 1 1 -37.478001 -18.938000 -24.750000 # A 
269 1 1 -38.727001 -19.822001 -24.750000 # A 
270 1 1 -39.976002 -18.938999 -24.750000 # A 
271 1 1 -41.224998 -19.822001 -24.750000 # A 
272 1 1 -42.474998 -18.938999 -24.750000 # A 
273 1 1 -43.723999 -19.823000 -24.750000 # A 
274 1 1 -44.973000 -18.940001 -24.750000 # A 
275 1 1 -46.222000 -19.823999 -24.750000 # A 
276 1 1 -47.472000 -18.941000 -24.750000 # A 
277 1 1 -48.721001 -19.823999 -24.750000 # A 
278 1 1 -49.970001 -18.941000 -24.750000 # A 
279 1 1 -51.219002 -19.825001 -24.750000 # A 
280 1 1 -52.469002 -18.941999 -24.750000 # A 
281 1 1 -53.717999 -19.826000 -24.750000 # A 
282 1 1 -54.966999 -18.943001 -24.750000 # A 
283 1 1 -56.216000 -19.826000 -24.750000 # A 
284 1 1 -57.466000 -18.943001 -24.750000 # A 
285 1 1 -58.715000 -19.827000 -24.750000 # A 
286 1 1 58.714001 -19.796000 -21.450001 # A 
287 1 1 57.465000 -18.913000 -21.450001 # A 
288 1 1 56.216000 -19.797001 -21.450001 # A 
289 1 1 54.966000 -18.914000 -21.450001 # A 
290 1 1 53.716999 -19.797001 -21.450001 # A 
291 1 1 52.467999 -18.914000 -21.450001 # A 
292 1 1 51.219002 -19.798000 -21.450001 # A 
293 1 1 49.969002 -18.915001 -21.450001 # A 
294 1 1 48.720001 -19.799000 -21.450001 # A 
295 1 1 47.471001 -18.916000 -21.450001 # A 
296 1 1 46.222000 -19.799000 -21.450001 # A 
297 1 1 44.972000 -18.916000 -21.450001 # A 
298 1 1 43.723000 -19.799999 -21.450001 # A 
299 1 1 42.473999 -18.917000 -21.450001 # A 
300 1 1 41.224998 -19.801001 -21.450001 # A 
301 1 1 39.974998 -18.917999 -21.450001 # A 
302 1 1 38.726002 -19.801001 -21.450001 # A 
303 1 1 37.477001 -18.917999 -21.450001 # A 
304 1 1 36.228001 -19.802000 -21.450001 # A 
305 1 1 34.978001 -18.919001 -21.450001 # A 
306 1 1 33.729000 -19.802999 -21.450001 # A 
307 1 1 32.480000 -18.920000 -21.450001 # A 
308 1 1 31.231001 -19.802999 -21.450001 # A 
309 1 1 29.981001 -18.920000 -21.450001 # A 
310 1 1 28.732000 -19.804001 -21.450001 # A 
311 1 1 27.483000 -18.921000 -21.450001 # A 
312 1 1 26.233999 -19.805000 -21.450001 # A 
313 1 1 24.983999 -18.922001 -21.450001 # A 
314 1 1 23.735001 -19.805000 -21.450001 # A 
315 1 1 22.486000 -18.922001 -21.450001 # A 
316 1 1 21.237000 -19.806000 -21.450001 # A 
317 1 1 19.987000 -18.923000 -21.450001 # A 
318 1 1 18.738001 -19.806999 -21.450001 # A 
319 1 1 17.489000 -18.924000 -21.450001 # A 
320 1 1 16.240000 -19.806999 -21.450001 # A 
321 1 1 14.990000 -18.924000 -21.450001 # A 
322 1 1 13.741000 -19.808001 -21.450001 # A 
323 1 1 12.492000 -18.924999 -21.450001 # A 
324 1 1 11.243000 -19.809000 -21.450001 # A 
325 1 1 9.993000 -18.926001 -21.450001 # A 
326 1 1 8.744000 -19.809000 -21.450001 # A 
327 1 1 7.495000 -18.926001 -21.450001 # A 
328 1 1 6.246000 -19.809999 -21.450001 # A 
329 1 1 4.996000 -18.927000 -21.450001 # A 
330 1 1 3.747000 -19.811001 -21.450001 # A 
331 1 1 2.498000 -18.927999 -21.450001 # A 
332 1 1 1.249000 -19.811001 -21.450001 # A 
333 1 1 0.000000 -18.927999 -21.450001 # A 
334 1 1 -1.250000 -19.812000 -21.450001 # A 
335 1 1 -2.499000 -18.929001 -21.450001 # A 
336 1 1 -3.748000 -19.812000 -21.450001 # A 
337 1 1 -4.997000 -18.929001 -21.450001 # A 
338 1 1 -6.246000 -19.813000 -21.450001 # A 
339 1 1 -7.496000 -18.930000 -21.450001 # A 
340 1 1 -8.745000 -19.813999 -21.450001 # A 
341 1 1 -9.994000 -18.931000 -21.450001 # A 
342 1 1 -11.243000 -19.813999 -21.450001 # A 
343 1 1 -12.493000 -18.931000 -21.450001 # A 
344 1 1 -13.742000 -19.815001 -21.450001 # A 
345 1 1 -14.991000 -18.931999 -21.450001 # A 
346 1 1 -16.240000 -19.816000 -21.450001 # A 
347 1 1 -17.490000 -18.933001 -21.450001 # A 
348 1 1 -18.739000 -19.816000 -21.450001 # A 
349 1 1 -19.988001 -18.933001 -21.450001 # A 
350 1 1 -21.237000 -19.816999 -21.450001 # A 
351 1 1 -22.487000 -18.934000 -21.450001 # A 
352 1 1 -23.736000 -19.818001 -21.450001 # A 
353 1 1 -24.985001 -18.934999 -21.450001 # A 
354 1 1 -26.233999 -19.818001 -21.450001 # A 
355 1 1 -27.483999 -18.934999 -21.450001 # A 
356 1 1 -28.733000 -19.819000 -21.450001 # A 
357 1 1 -29.982000 -18.936001 -21.450001 # A 
358 1 1 -31.231001 -19.820000 -21.450001 # A 
359 1 1 -32.480999 -18.937000 -21.450001 # A 
360 1 1 -33.730000 -19.820000 -21.450001 # A 
361 1 1 -34.979000 -18.937000 -21.450001 # A 
362 1 1 -36.228001 -19.820999 -21.450001 # A 
363 1 1 -37.478001 -18.938000 -21.450001 # A 
364 1 1 -38.727001 -19.822001 -21.450001 # A 
365 1 1 -39.976002 -18.938999 -21.450001 # A 
366 1 1 -41.224998 -19.822001 -21.450001 # A 
367 1 1 -42.474998 -18.938999 -21.450001 # A 
368 1 1 -43.723999 -19.823000 -21.450001 # A 
369 1 1 -44.973000 -18.940001 -21.450001 # A 
370 1 1 -46.222000 -19.823999 -21.450001 # A 
371 1 1 -47.472000 -18.941000 -21.450001 # A 
372 1 1 -48.721001 -19.823999 -21.450001 # A 
373 1 1 -49.970001 -18.941000 -21.450001 # A 
374 1 1 -51.219002 -19.825001 -21.450001 # A 
375 1 1 -52.469002 -18.941999 -21.450001 # A 
376 1 1 -53.717999 -19.826000 -21.450001 # A 
377 1 1 -54.966999 -18.943001 -21.450001 # A 
378 1 1 -56.216000 -19.826000 -21.450001 # A 
379 1 1 -57.466000 -18.943001 -21.450001 # A 
380 1 1 -58.715000 -19.827000 -21.450001 # A 
381 1 1 58.714001 -19.796000 -18.150000 # A 
382 1 1 57.465000 -18.913000 -18.150000 # A 
383 1 1 56.216000 -19.797001 -18.150000 # A 
384 1 1 54.966000 -18.914000 -18.150000 # A 
385 1 1 53.716999 -19.797001 -18.150000 # A 
386 1 1 52.467999 -18.914000 -18.150000 # A 
387 1 1 51.219002 -19.798000 -18.150000 # A 
388 1 1 49.969002 -18.915001 -18.150000 # A 
389 1 1 48.720001 -19.799000 -18.150000 # A 
390 1 1 47.471001 -18.916000 -18.150000 # A 
391 1 1 46.222000 -19.799000 -18.150000 # A 
392 1 1 44.972000 -18.916000 -18.150000 # A 
393 1 1 43.723000 -19.799999 -18.150000 # A 
394 1 1 42.473999 -18.917000 -18.150000 # A 
395 1 1 41.224998 -19.801001 -18.150000 # A 
396 1 1 39.974998 -18.917999 -18.150000 # A 
397 1 1 38.726002 -19.801001 -18.150000 # A 
398 1 1 37.477001 -18.917999 -18.150000 # A 
399 1 1 36.228001 -19.802000 -18.150000 # A 
400 1 1 34.978001 -18.919001 -18.150000 # A 
401 1 1 33.729000 -19.802999 -18.150000 # A 
402 1 1 32.480000 -18.920000 -18.150000 # A 
403 1 1 31.231001 -19.802999 -18.150000 # A 
404 1 1 29.981001 -18.920000 -18.150000 # A 
405 1 1 28.732000 -19.804001 -18.150000 # A 
406 1 1 27.483000 -18.921000 -18.150000 # A 
407 1 1 26.233999 -19.805000 -18.150000 # A 
408 1 1 24.983999 -18.922001 -18.150000 # A 
409 1 1 23.735001 -19.805000 -18.150000 # A 
410 1 1 22.486000 -18.922001 -18.150000 # A 
411 1 1 21.237000 -19.806000 -18.150000 # A 
412 1 1 19.987000 -18.923000 -18.150000 # A 
413 1 1 18.738001 -19.806999 -18.150000 # A 
414 1 1 17.489000 -18.924000 -18.150000 # A 
415 1 1 16.240000 -19.806999 -18.150000 # A 
416 1 1 14.990000 -18.924000 -18.150000 # A 
417 1 1 13.741000 -19.808001 -18.150000 # A 
418 1 1 12.492000 -18.924999 -18.150000 # A 
419 1 1 11.243000 -19.809000 -18.150000 # A 
420 1 1 9.993000 -18.926001 -18.150000 # A 
421 1 1 8.744000 -19.809000 -18.150000 # A 
422 1 1 7.495000 -18.926001 -18.150000 # A 
423 1 1 6.246000 -19.809999 -18.150000 # A 
424 1 1 4.996000 -18.927000 -18.150000 # A 
425 1 1 3.747000 -19.811001 -18.150000 # A 
426 1 1 2.498000 -18.927999 -18.150000 # A 
427 1 1 1.249000 -19.811001 -18.150000 # A 
428 1 1 0.000000 -18.927999 -18.150000 # A 
429 1 1 -1.250000 -19.812000 -18.150000 # A 
430 1 1 -2.499000 -18.929001 -18.150000 # A 
431 1 1 -3.748000 -19.812000 -18.150000 # A 
432 1 1 -4.997000 -18.929001 -18.150000 # A 
433 1 1 -6.246000 -19.813000 -18.150000 # A 
434 1 1 -7.496000 -18.930000 -18.150000 # A 
435 1 1 -8.745000 -19.813999 -18.150000 # A 
436 1 1 -9.994000 -18.931000 -18.150000 # A 
437 1 1 -11.243000 -19.813999 -18.150000 # A 
438 1 1 -12.493000 -18.931000 -18.150000 # A 
439 1 1 -13.742000 -19.815001 -18.150000 # A 
440 1 1 -14.991000 -18.931999 -18.150000 # A 
441 1 1 -16.240000 -19.816000 -18.150000 # A 
442 1 1 -17.490000 -18.933001 -18.150000 # A 
443 1 1 -18.739000 -19.816000 -18.150000 # A 
444 1 1 -19.988001 -18.933001 -18.150000 # A 
445 1 1 -21.237000 -19.816999 -18.150000 # A 
446 1 1 -22.487000 -18.934000 -18.150000 # A 
447 1 1 -23.736000 -19.818001 -18.150000 # A 
448 1 1 -24.985001 -18.934999 -18.150000 # A 
449 1 1 -26.233999 -19.818001 -18.150000 # A 
450 1 1 -27.483999 -18.934999 -18.150000 # A 
451 1 1 -28.733000 -19.819000 -18.150000 # A 
452 1 1 -29.982000 -18.936001 -18.150000 # A 
453 1 1 -31.231001 -19.820000 -18.150000 # A 
454 1 1 -32.480999 -18.937000 -18.150000 # A 
455 1 1 -33.730000 -19.820000 -18.150000 # A 
456 1 1 -34.979000 -18.937000 -18.150000 # A 
457 1 1 -36.228001 -19.820999 -18.150000 # A 
458 1 1 -37.478001 -18.938000 -18.150000 # A 
459 1 1 -38.727001 -19.822001 -18.150000 # A 
460 1 1 -39.976002 -18.938999 -18.150000 # A 
461 1 1 -41.224998 -19.822001 -18.150000 # A 
462 1 1 -42.474998 -18.938999 -18.150000 # A 
463 1 1 -43.723999 -19.823000 -18.150000 # A 
464 1 1 -44.973000 -18.940001 -18.150000 # A 
465 1 1 -46.222000 -19.823999 -18.150000 # A 
466 1 1 -47.472000 -18.941000 -18.150000 # A 
467 1 1 -48.721001 -19.823999 -18.150000 # A 
468 1 1 -49.970001 -18.941000 -18.150000 # A 
469 1 1 -51.219002 -19.825001 -18.150000 # A 
470 1 1 -52.469002 -18.941999 -18.150000 # A 
471 1 1 -53.717999 -19.826000 -18.150000 # A 
472 1 1 -54.966999 -18.943001 -18.150000 # A 
473 1 1 -56.216000 -19.826000 -18.150000 # A 
474 1 1 -57.466000 -18.943001 -18.150000 # A 
475 1 1 -58.715000 -19.827000 -18.150000 # A 
476 1 1 58.714001 -19.796000 -14.850000 # A 
477 1 1 57.465000 -18.913000 -14.850000 # A 
478 1 1 56.216000 -19.797001 -14.850000 # A 
479 1 1 54.966000 -18.914000 -14.850000 # A 
480 1 1 53.716999 -19.797001 -14.850000 # A 
481 1 1 52.467999 -18.914000 -14.850000 # A 
482 1 1 51.219002 -19.798000 -14.850000 # A 
483 1 1 49.969002 -18.915001 -14.850000 # A 
484 1 1 48.720001 -19.799000 -14.850000 # A 
485 1 1 47.471001 -18.916000 -14.850000 # A 
486 1 1 46.222000 -19.799000 -14.850000 # A 
487 1 1 44.972000 -18.916000 -14.850000 # A 
488 1 1 43.723000 -19.799999 -14.850000 # A 
489 1 1 42.473999 -18.917000 -14.850000 # A 
490 1 1 41.224998 -19.801001 -14.850000 # A 
491 1 1 39.974998 -18.917999 -14.850000 # A 
492 1 1 38.726002 -19.801001 -14.850000 # A 
493 1 1 37.477001 -18.917999 -14.850000 # A 
494 1 1 36.228001 -19.802000 -14.850000 # A 
495 1 1 34.978001 -18.919001 -14.850000 # A 
496 1 1 33.729000 -19.802999 -14.850000 # A 
497 1 1 32.480000 -18.920000 -14.850000 # A 
498 1 1 31.231001 -19.802999 -14.850000 # A 
499 1 1 29.981001 -18.920000 -14.850000 # A 
500 1 1 28.732000 -19.804001 -14.850000 # A 
501 1 1 27.483000 -18.921000 -14.850000 # A 
502 1 1 26.233999 -19.805000 -14.850000 # A 
503 1 1 24.983999 -18.922001 -14.850000 # A 
504 1 1 23.735001 -19.805000 -14.850000 # A 
505 1 1 22.486000 -18.922001 -14.850000 # A 
506 1 1 21.237000 -19.806000 -14.850000 # A 
507 1 1 19.987000 -18.923000 -14.850000 # A 
508 1 1 18.738001 -19.806999 -14.850000 # A 
509 1 1 17.489000 -18.924000 -14.850000 # A 
510 1 1 16.240000 -19.806999 -14.850000 # A 
511 1 1 14.990000 -18.924000 -14.850000 # A 
512 1 1 13.741000 -19.808001 -14.850000 # A 
513 1 1 12.492000 -18.924999 -14.850000 # A 
514 1 1 11.243000 -19.809000 -14.850000 # A 
515 1 1 9.993000 -18.926001 -14.850000 # A 
516 1 1 8.744000 -19.809000 -14.850000 # A 
517 1 1 7.495000 -18.926001 -14.850000 # A 
518 1 1 6.246000 -19.809999 -14.850000 # A 
519 1 1 4.996000 -18.927000 -14.850000 # A 
520 1 1 3.747000 -19.811001 -14.850000 # A 
521 1 1 2.498000 -18.927999 -14.850000 # A 
522 1 1 1.249000 -19.811001 -14.850000 # A 
523 1 1 0.000000 -18.927999 -14.850000 # A 
524 1 1 -1.250000 -19.812000 -14.850000 # A 
525 1 1 -2.499000 -18.929001 -14.850000 # A 
526 1 1 -3.748000 -19.812000 -14.850000 # A 
527 1 1 -4.997000 -18.929001 -14.850000 # A 
528 1 1 -6.246000 -19.813000 -14.850000 # A 
529 1 1 -7.496000 -18.930000 -14.850000 # A 
530 1 1 -8.745000 -19.813999 -14.850000 # A 
531 1 1 -9.994000 -18.931000 -14.850000 # A 
532 1 1 -11.243000 -19.813999 -14.850000 # A 
533 1 1 -12.493000 -18.931000 -14.850000 # A 
534 1 1 -13.742000 -19.815001 -14.850000 # A 
535 1 1 -14.991000 -18.931999 -14.850000 # A 
536 1 1 -16.240000 -19.816000 -14.850000 # A 
537 1 1 -17.490000 -18.933001 -14.850000 # A 
538 1 1 -18.739000 -19.816000 -14.850000 # A 
539 1 1 -19.988001 -18.933001 -14.850000 # A 
540 1 1 -21.237000 -19.816999 -14.850000 # A 
541 1 1 -22.487000 -18.934000 -14.850000 # A 
542 1 1 -23.736000 -19.818001 -14.850000 # A 
543 1 1 -24.985001 -18.934999 -14.850000 # A 
544 1 1 -26.233999 -19.818001 -14.850000 # A 
545 1 1 -27.483999 -18.934999 -14.850000 # A 
546 1 1 -28.733000 -19.819000 -14.850000 # A 
547 1 1 -29.982000 -18.936001 -14.850000 # A 
548 1 1 -31.231001 -19.820000 -14.850000 # A 
549 1 1 -32.480999 -18.937000 -14.850000 # A 
550 1 1 -33.730000 -19.820000 -14.850000 # A 
551 1 1 -34.979000 -18.937000 -14.850000 # A 
552 1 1 -36.228001 -19.820999 -14.850000 # A 
553 1 1 -37.478001 -18.938000 -14.850000 # A 
554 1 1 -38.727001 -19.822001 -14.850000 # A 
555 1 1 -39.976002 -18.938999 -14.850000 # A 
556 1 1 -41.224998 -19.822001 -14.850000 # A 
557 1 1 -42.474998 -18.938999 -14.850000 # A 
558 1 1 -43.723999 -19.823000 -14.850000 # A 
559 1 1 -44.973000 -18.940001 -14.850000 # A 
560 1 1 -46.222000 -19.823999 -14.850000 # A 
561 1 1 -47.472000 -18.941000 -14.850000 # A 
562 1 1 -48.721001 -19.823999 -14.850000 # A 
563 1 1 -49.970001 -18.941000 -14.850000 # A 
564 1 1 -51.219002 -19.825001 -14.850000 # A 
565 1 1 -52.469002 -18.941999 -14.850000 # A 
566 1 1 -53.717999 -19.826000 -14.850000 # A 
567 1 1 -54.966999 -18.943001 -14.850000 # A 
568 1 1 -56.216000 -19.826000 -14.850000 # A 
569 1 1 -57.466000 -18.943001 -14.850000 # A 
570 1 1 -58.715000 -19.827000 -14.850000 # A 
571 1 1 58.714001 -19.796000 -11.550000 # A 
572 1 1 57.465000 -18.913000 -11.550000 # A 
573 1 1 56.216000 -19.797001 -11.550000 # A 
574 1 1 54.966000 -18.914000 -11.550000 # A 
575 1 1 53.716999 -19.797001 -11.550000 # A 
576 1 1 52.467999 -18.914000 -11.550000 # A 
577 1 1 51.219002 -19.798000 -11.550000 # A 
578 1 1 49.969002 -18.915001 -11.550000 # A 
579 1 1 48.720001 -19.799000 -11.550000 # A 
580 1 1 47.471001 -18.916000 -11.550000 # A 
581 1 1 46.222000 -19.799000 -11.550000 # A 
582 1 1 44.972000 -18.916000 -11.550000 # A 
583 1 1 43.723000 -19.799999 -11.550000 # A 
584 1 1 42.473999 -18.917000 -11.550000 # A 
585 1 1 41.224998 -19.801001 -11.550000 # A 
586 1 1 39.974998 -18.917999 -11.550000 # A 
587 1 1 38.726002 -19.801001 -11.550000 # A 
588 1 1 37.477001 -18.917999 -11.550000 # A 
589 1 1 36.228001 -19.802000 -11.550000 # A 
590 1 1 34.978001 -18.919001 -11.550000 # A 
591 1 1 33.729000 -19.802999 -11.550000 # A 
592 1 1 32.480000 -18.920000 -11.550000 # A 
593 1 1 31.231001 -19.802999 -11.550000 # A 
594 1 1 29.981001 -18.920000 -11.550000 # A 
595 1 1 28.732000 -19.804001 -11.550000 # A 
596 1 1 27.483000 -18.921000 -11.550000 # A 
597 1 1 26.233999 -19.805000 -11.550000 # A 
598 1 1 24.983999 -18.922001 -11.550000 # A 
599 1 1 23.735001 -19.805000 -11.550000 # A 
600 1 1 22.486000 -18.922001 -11.550000 # A 
601 1 1 21.237000 -19.806000 -11.550000 # A 
602 1 1 19.987000 -18.923000 -11.550000 # A 
603 1 1 18.738001 -19.806999 -11.550000 # A 
604 1 1 17.489000 -18.924000 -11.550000 # A 
605 1 1 16.240000 -19.806999 -11.550000 # A 
606 1 1 14.990000 -18.924000 -11.550000 # A 
607 1 1 13.741000 -19.808001 -11.550000 # A 
608 1 1 12.492000 -18.924999 -11.550000 # A 
609 1 1 11.243000 -19.809000 -11.550000 # A 
610 1 1 9.993000 -18.926001 -11.550000 # A 
611 1 1 8.744000 -19.809000 -11.550000 # A 
612 1 1 7.495000 -18.926001 -11.550000 # A 
613 1 1 6.246000 -19.809999 -11.550000 # A 
614 1 1 4.996000 -18.927000 -11.550000 # A 
615 1 1 3.747000 -19.811001 -11.550000 # A 
616 1 1 2.498000 -18.927999 -11.550000 # A 
617 1 1 1.249000 -19.811001 -11.550000 # A 
618 1 1 0.000000 -18.927999 -11.550000 # A 
619 1 1 -1.250000 -19.812000 -11.550000 # A 
620 1 1 -2.499000 -18.929001 -11.550000 # A 
621 1 1 -3.748000 -19.812000 -11.550000 # A 
622 1 1 -4.997000 -18.929001 -11.550000 # A 
623 1 1 -6.246000 -19.813000 -11.550000 # A 
624 1 1 -7.496000 -18.930000 -11.550000 # A 
625 1 1 -8.745000 -19.813999 -11.550000 # A 
626 1 1 -9.994000 -18.931000 -11.550000 # A 
627 1 1 -11.243000 -19.813999 -11.550000 # A 
628 1 1 -12.493000 -18.931000 -11.550000 # A 
629 1 1 -13.742000 -19.815001 -11.550000 # A 
630 1 1 -14.991000 -18.931999 -11.550000 # A 
631 1 1 -16.240000 -19.816000 -11.550000 # A 
632 1 1 -17.490000 -18.933001 -11.550000 # A 
633 1 1 -18.739000 -19.816000 -11.550000 # A 
634 1 1 -19.988001 -18.933001 -11.550000 # A 
635 1 1 -21.237000 -19.816999 -11.550000 # A 
636 1 1 -22.487000 -18.934000 -11.550000 # A 
637 1 1 -23.736000 -19.818001 -11.550000 # A 
638 1 1 -24.985001 -18.934999 -11.550000 # A 
639 1 1 -26.233999 -19.818001 -11.550000 # A 
640 1 1 -27.483999 -18.934999 -11.550000 # A 
641 1 1 -28.733000 -19.819000 -11.550000 # A 
642 1 1 -29.982000 -18.936001 -11.550000 # A 
643 1 1 -31.231001 -19.820000 -11.550000 # A 
644 1 1 -32.480999 -18.937000 -11.550000 # A 
645 1 1 -33.730000 -19.820000 -11.550000 # A 
646 1 1 -34.979000 -18.937000 -11.550000 # A 
647 1 1 -36.228001 -19.820999 -11.550000 # A 
648 1 1 -37.478001 -18.938000 -11.550000 # A 
649 1 1 -38.727001 -19.822001 -11.550000 # A 
650 1 1 -39.976002 -18.938999 -11.550000 # A 
651 1 1 -41.224998 -19.822001 -11.550000 # A 
652 1 1 -42.474998 -18.938999 -11.550000 # A 
653 1 1 -43.723999 -19.823000 -11.550000 # A 